Compound,formula,Z,Period,Group,m,kai,EA,Nval,IE1,IE2,Rvdw,Rcov,MP,BP,Cp_g,Cp_mol,rho,E-fusion,E-vapor,ThermalConductivity
CaLa2S4,CaLa2S4,28.28571429,4,10.28571429,63.73714286,1.931428571,1.329782857,0,8.386714286,18.19160571,2.052857143,1.397142857,722.1271429,1728.927143,0.552714286,24.42128571,3.097428571,3.98,141.9728571,0.327251429
CaLa2Se4,CaLa2Se4,38.57142857,4.571428571,10.28571429,90.53142857,1.914285714,1.297142857,0,8.039502857,16.96424571,2.11,1.477142857,782.4642857,1866.292857,0.331571429,25.943,4.731142857,6.077142857,151.2985714,0.337371429
CaLa2Te4,CaLa2Te4,48.85714286,5.142857143,10.28571429,118.3257143,1.657142857,1.269028571,0,7.615051429,15.48424571,2.201428571,1.585714286,913.1557143,2039.435714,0.263571429,26.15271429,5.543142857,12.99142857,165.19,0.339142857
CaO,CaO,14,3,9,28.04,2.22,0.73056075,0,9.865605,23.49641,1.915,1.19,584.755,923.669,0.7825,27.6535,1.4895,4.381,79.04045,1.0051337
CaS,CaS,18,3.5,9,36.075,1.79,1.03856,0,8.236585,17.6048,2.055,1.39,751.755,1237.455,0.6775,24.3145,1.755,5.135,82.335,1.006345
CaO4Sc2,CaSc2O4,13.42857143,2.857142857,10.28571429,27.71428571,2.497142857,0.888640857,0,10.52976286,25.42223714,1.812857143,1.068571429,708.6985714,1190.886,0.779285714,27.783,1.890857143,5.918285714,111.1305143,0.332438514
CaS4Sc2,CaSc2S4,18,3.428571429,10.28571429,36.89714286,2.005714286,1.24064,0,8.668025714,18.68896857,1.972857143,1.297142857,899.5557143,1549.498571,0.659285714,23.967,2.194285714,6.78,114.8957143,0.333822857
CaSc2Se4,CaSc2Se4,28.28571429,4,10.28571429,63.69142857,1.988571429,1.208,0,8.320814286,17.46160857,2.03,1.377142857,959.8928571,1686.864286,0.438142857,25.48871429,3.828,8.877142857,124.2214286,0.343942857
CaSc2Te4,CaSc2Te4,38.57142857,4.571428571,10.28571429,91.48571429,1.731428571,1.179885714,0,7.896362857,15.98160857,2.121428571,1.485714286,1090.584286,1860.007143,0.370142857,25.69842857,4.64,15.79142857,138.1128571,0.345714286
CaSe,CaSe,27,4,9,59.52,1.775,1.01,0,7.932775,16.53086,2.105,1.46,804.55,1357.65,0.484,25.646,3.1845,6.97,90.495,1.0152
CaTe,CaTe,36,4.5,9,83.84,1.55,0.9854,0,7.56138,15.23586,2.185,1.555,918.905,1509.15,0.4245,25.8295,3.895,13.02,102.65,1.01675
CaO4Y2,CaY2O4,18.57142857,3.142857143,10.28571429,40.27142857,2.457142857,0.922640857,0,10.43142286,25.25773143,1.861428571,1.117142857,703.27,1336.314571,0.702142857,28.07157143,2.315714286,4.604,127.8448,0.336438514
CaS4Y2,CaY2S4,23.14285714,3.714285714,10.28571429,49.45428571,1.965714286,1.27464,0,8.569685714,18.52446286,2.021428571,1.345714286,894.1271429,1694.927143,0.582142857,24.25557143,2.619142857,5.465714286,131.61,0.337822857
CaSe4Y2,CaY2Se4,33.42857143,4.285714286,10.28571429,76.24857143,1.948571429,1.242,0,8.222474286,17.29710286,2.078571429,1.425714286,954.4642857,1832.292857,0.361,25.77728571,4.252857143,7.562857143,140.9357143,0.347942857
CaTe4Y2,CaY2Te4,43.71428571,4.857142857,10.28571429,104.0428571,1.691428571,1.213885714,0,7.798022857,15.81710286,2.17,1.534285714,1085.155714,2005.435714,0.293,25.987,5.064857143,14.47714286,154.8271429,0.349714286
As2Cd3,Cd3As2,42,4.6,13.2,97.408,1.886,0.324,0,9.311732,17.580666,2.048,1.32,792.5914,979.75,0.2702,25.468,7.4808,14.86,72.882,0.7816
Cd3N2,Cd3N2,31.6,3.8,13.2,73.044,2.23,-0.028,0,11.209932,21.985506,1.928,1.124,381.7914,655.032,0.5546,27.2616,5.6904,3.924,61.03912,0.58090392
Cd3P2,Cd3P2,34.8,4.2,13.2,79.828,1.89,0.2986,0,9.590968,18.052786,2.028,1.276,483.4514,845.55,0.4462,25.1416,5.9192,4.036,64.882,0.58174
Cd3Sb2,Cd3Sb2,49.2,5,13.2,116.16,1.834,0.428,0,8.839648,16.796986,2.132,1.4,718.0426,1368.15,0.2214,25.704,7.8688,11.66,87.11,0.678
Al2CdO4,CdAl2O4,15.14285714,2.714285714,14.57142857,32.90857143,2.667142857,0.960926571,0,10.77679371,27.86425857,1.705714286,0.92,382.6578571,997.886,0.813857143,27.41885714,2.823714286,4.084,99.30194286,0.815581371
Al2CdS4,CdAl2S4,19.71428571,3.285714286,14.57142857,42.09142857,2.175714286,1.312925714,0,8.915056571,21.13099,1.865714286,1.148571429,573.515,1356.498571,0.693857143,23.60285714,3.127142857,4.945714286,103.0671429,0.816965714
Al2CdSe4,CdAl2Se4,30,3.857142857,14.57142857,68.88571429,2.158571429,1.280285714,0,8.567845143,19.90363,1.922857143,1.228571429,633.8521429,1493.864286,0.472714286,25.12457143,4.760857143,7.042857143,112.3928571,0.827085714
Al2CdTe4,CdAl2Te4,40.28571429,4.428571429,14.57142857,96.68,1.901428571,1.252171429,0,8.143393714,18.42363,2.014285714,1.337142857,764.5435714,1667.007143,0.404714286,25.33428571,5.572857143,13.95714286,126.2842857,0.828857143
Br2Cd,CdBr2,39.33333333,4.333333333,15.33333333,90.73333333,2.536666667,2.243333333,0,10.87380667,20.03010333,1.96,1.246666667,375.373,568.0166667,0.393,59.13333333,4.963333333,5.966666667,43.10666667,0.32348
CdCl2,CdCl2,27.33333333,3.666666667,15.33333333,61.1,2.67,2.411333333,0,11.64302667,21.51183667,1.893333333,1.133333333,312.5063333,506.1233333,0.396333333,31.306,5.026,4.233333333,40.09,0.322726
CdF2,CdF2,22,3,15.33333333,50.13333333,3.216666667,2.266,0,14.61314,28.94997,1.706666667,0.866666667,233.7263333,403.41,0.626333333,29.54266667,4.014,2.273333333,35.46986667,0.322852667
CdGa2O4,CdGa2O4,20.28571429,3,14.57142857,45.12,2.724285714,0.920640857,0,10.78066029,28.34614429,1.714285714,0.917142857,202.4983143,915.0288571,0.664142857,27.94171429,3.739142857,2.624,89.37622857,0.254438514
CdGa2S4,CdGa2S4,24.85714286,3.571428571,14.57142857,54.30285714,2.232857143,1.27264,0,8.918923143,21.61287571,1.874285714,1.145714286,393.3554571,1273.641429,0.544142857,24.12571429,4.042571429,3.485714286,93.14142857,0.255822857
CdGa2Se4,CdGa2Se4,35.14285714,4.142857143,14.57142857,81.09714286,2.215714286,1.24,0,8.571711714,20.38551571,1.931428571,1.225714286,453.6926,1411.007143,0.323,25.64742857,5.676285714,5.582857143,102.4671429,0.265942857
CdGa2Te4,CdGa2Te4,45.42857143,4.714285714,14.57142857,108.8914286,1.958571429,1.211885714,0,8.147260286,18.90551571,2.022857143,1.334285714,584.3840286,1584.15,0.255,25.85714286,6.488285714,12.49714286,116.3585714,0.267714286
CdI2,CdI2,51.33333333,5,15.33333333,122.0666667,2.336666667,2.0394,0,9.965446667,18.39030333,2.046666667,1.373333333,455.973,651.75,0.219666667,44.96,6.176666667,7.273333333,47.22333333,0.32566
CdIn2O4,CdIn2O4,25.42857143,3.285714286,14.57142857,58,2.715714286,0.920640857,0,10.71982,27.87618714,1.731428571,0.971428571,238.737,857.3145714,0.624142857,28.14457143,4.140857143,1.958285714,80.88765714,0.371581371
CdIn2S4,CdIn2S4,30,3.857142857,14.57142857,67.18285714,2.224285714,1.27264,0,8.858082857,21.14291857,1.891428571,1.2,429.5941429,1215.927143,0.504142857,24.32857143,4.444285714,2.82,84.65285714,0.372965714
CdIn2Se4,CdIn2Se4,40.28571429,4.428571429,14.57142857,93.97714286,2.207142857,1.24,0,8.510871429,19.91555857,1.948571429,1.28,489.9312857,1353.292857,0.283,25.85028571,6.078,4.917142857,93.97857143,0.383085714
CdIn2Te4,CdIn2Te4,50.57142857,5,14.57142857,121.7714286,1.95,1.211885714,0,8.08642,18.43555857,2.04,1.388571429,620.6227143,1526.435714,0.215,26.06,6.89,11.83142857,107.87,0.384857143
CdLa2O4,CdLa2O4,27.71428571,3.571428571,11.71428571,64.88571429,2.521428571,0.977783714,0,10.65997429,25.64438714,1.874285714,1.12,456.8512857,1267.886,0.613285714,28.25028571,3.808285714,2.798285714,130.3790857,0.177009943
CdLa2S4,CdLa2S4,32.28571429,4.142857143,11.71428571,74.06857143,2.03,1.329782857,0,8.798237143,18.91111857,2.034285714,1.348571429,647.7084286,1626.498571,0.493285714,24.43428571,4.111714286,3.66,134.1442857,0.178394286
CdLa2Se4,CdLa2Se4,42.57142857,4.714285714,11.71428571,100.8628571,2.012857143,1.297142857,0,8.451025714,17.68375857,2.091428571,1.428571429,708.0455714,1763.864286,0.272142857,25.956,5.745428571,5.757142857,143.47,0.188514286
CdLa2Te4,CdLa2Te4,52.85714286,5.285714286,11.71428571,128.6571429,1.755714286,1.269028571,0,8.026574286,16.20375857,2.182857143,1.537142857,838.737,1937.007143,0.204142857,26.16571429,6.557428571,12.67142857,157.3614286,0.190285714
CdO,CdO,28,3.5,14,64.2,2.565,0.73056075,0,11.305935,26.014705,1.85,1.02,324.2895,565.169,0.5745,27.699,5.0395,3.261,51.64045,0.4841337
CdS,CdS,32,4,14,72.235,2.135,1.03856,0,9.676915,20.123095,1.99,1.22,491.2895,878.955,0.4695,24.36,5.305,4.015,54.935,0.485345
CdO4Sc2,CdSc2O4,17.42857143,3,11.71428571,38.04571429,2.595714286,0.888640857,0,10.94128571,26.14175,1.794285714,1.02,634.2798571,1088.457429,0.719857143,27.796,2.905142857,5.598285714,103.3019429,0.183581371
CdS4Sc2,CdSc2S4,22,3.571428571,11.71428571,47.22857143,2.104285714,1.24064,0,9.079548571,19.40848143,1.954285714,1.248571429,825.137,1447.07,0.599857143,23.98,3.208571429,6.46,107.0671429,0.184965714
CdSc2Se4,CdSc2Se4,32.28571429,4.142857143,11.71428571,74.02285714,2.087142857,1.208,0,8.732337143,18.18112143,2.011428571,1.328571429,885.4741429,1584.435714,0.378714286,25.50171429,4.842285714,8.557142857,116.3928571,0.195085714
CdSc2Te4,CdSc2Te4,42.57142857,4.714285714,11.71428571,101.8171429,1.83,1.179885714,0,8.307885714,16.70112143,2.102857143,1.437142857,1016.165571,1757.578571,0.310714286,25.71142857,5.654285714,15.47142857,130.2842857,0.196857143
CdSe,CdSe,41,4.5,14,95.68,2.12,1.01,0,9.373105,19.049155,2.04,1.29,544.0845,999.15,0.276,25.6915,6.7345,5.85,63.095,0.4942
CdTe,CdTe,50,5,14,120,1.895,0.9854,0,9.00171,17.754155,2.12,1.385,658.4395,1150.65,0.2165,25.875,7.445,11.9,75.25,0.49575
CdO4Y2,CdY2O4,22.57142857,3.285714286,11.71428571,50.60285714,2.555714286,0.922640857,0,10.84294571,25.97724429,1.842857143,1.068571429,628.8512857,1233.886,0.642714286,28.08457143,3.33,4.284,120.0162286,0.187581371
CdS4Y2,CdY2S4,27.14285714,3.857142857,11.71428571,59.78571429,2.064285714,1.27464,0,8.981208571,19.24397571,2.002857143,1.297142857,819.7084286,1592.498571,0.522714286,24.26857143,3.633428571,5.145714286,123.7814286,0.188965714
CdSe4Y2,CdY2Se4,37.42857143,4.428571429,11.71428571,86.58,2.047142857,1.242,0,8.633997143,18.01661571,2.06,1.377142857,880.0455714,1729.864286,0.301571429,25.79028571,5.267142857,7.242857143,133.1071429,0.199085714
CdTe4Y2,CdY2Te4,47.71428571,5,11.71428571,114.3742857,1.79,1.213885714,0,8.209545714,16.53661571,2.151428571,1.485714286,1010.737,1903.007143,0.233571429,26,6.079142857,14.15714286,146.9985714,0.200857143
AsCs3,Cs3As,49.5,5.5,4.5,118.405,1.1375,0.5562225,0,5.36757875,22.01538,3.035,2.085,498.775,930.4,0.26375,30.3175,2.841,8.4925,58.905,0.39475
Cs3N,Cs3N,43,5,4.5,103.1775,1.3525,0.3362225,0,6.55395375,24.768405,2.96,1.9625,242.025,727.45125,0.4415,31.4385,1.722,1.6575,51.5032,0.26931495
Cs3P,Cs3P,45,5.25,4.5,107.4175,1.14,0.5403475,0,5.54210125,22.310455,3.0225,2.0575,305.5625,846.525,0.37375,30.1135,1.865,1.7275,53.905,0.2698375
Cs3Sb,Cs3Sb,54,5.75,4.5,130.125,1.105,0.6212225,0,5.07252625,21.52558,3.0875,2.135,452.182,1173.15,0.23325,30.465,3.0835,6.4925,67.7975,0.33
AsBaCs,CsBaAs,48,5.333333333,6,115.04,1.286666667,0.42721,0,6.298056333,17.25015667,2.653333333,1.88,797.3166667,1317.15,0.258333333,28.30666667,3.705333333,12.59666667,80.11333333,0.348333333
BaBr3Cs,CsBaBr3,43.2,4.8,10.8,101.98,2.112,2.113326,0,8.9093938,19.586854,2.332,1.59,419.93,811.63,0.3736,57.47,2.9498,5.498,50.423,0.109332
BaCl3Cs,CsBaCl3,32.4,4.2,10.8,75.31,2.232,2.264526,0,9.6016918,20.920414,2.272,1.488,363.35,755.926,0.3766,32.4254,3.0062,3.938,47.708,0.1086534
BaCsF3,CsBaF3,27.6,3.6,10.8,65.44,2.724,2.133726,0,12.2747938,27.614734,2.104,1.248,292.448,663.484,0.5836,30.8384,2.0954,2.174,43.54988,0.1087674
BaCsI3,CsBaI3,54,5.4,10.8,130.18,1.932,1.929786,0,8.0918698,18.111034,2.41,1.704,492.47,886.99,0.2176,44.714,4.0418,6.674,54.128,0.111294
BaCsN,CsBaN,39.33333333,4.666666667,6,94.73666667,1.573333333,0.133876667,0,7.879889667,20.92085667,2.553333333,1.716666667,454.9833333,1046.551667,0.495333333,29.80133333,2.213333333,3.483333333,70.24426667,0.1810866
BaCsP,CsBaP,42,5,6,100.39,1.29,0.406043333,0,6.530753,17.64359,2.636666667,1.843333333,539.7,1205.316667,0.405,28.03466667,2.404,3.576666667,73.44666667,0.181783333
BaCsSb,CsBaSb,54,5.666666667,6,130.6666667,1.243333333,0.513876667,0,5.904653,16.59709,2.723333333,1.946666667,735.1926667,1640.816667,0.217666667,28.50333333,4.028666667,9.93,91.97,0.262
AsBeCs,CsBeAs,30.66666667,4,6,72.27733333,1.513333333,0.42721,0,7.668401667,19.98592667,2.27,1.523333333,983.9833333,1524.816667,0.798666667,24.431,3.151333333,12.58,132.38,0.957
BeBr3Cs,CsBeBr3,32.8,4,10.8,76.3224,2.248,2.113326,0,9.731601,21.228316,2.102,1.376,531.93,936.23,0.6978,55.1446,2.6174,5.488,81.783,0.474532
BeCsCl3,CsBeCl3,22,3.4,10.8,49.6524,2.368,2.264526,0,10.423899,22.561876,2.042,1.274,475.35,880.526,0.7008,30.1,2.6738,3.928,79.068,0.4738534
BeCsF3,CsBeF3,17.2,2.8,10.8,39.7824,2.86,2.133726,0,13.097001,29.256196,1.874,1.034,404.448,788.084,0.9078,28.513,1.763,2.164,74.90988,0.4739674
BeCsI3,CsBeI3,43.6,4.6,10.8,104.5224,2.068,1.929786,0,8.914077,19.752496,2.18,1.49,604.47,1011.59,0.5418,42.3886,3.7094,6.664,85.488,0.476494
BeCsN,CsBeN,22,3.333333333,6,51.974,1.8,0.133876667,0,9.250235,23.65662667,2.17,1.36,641.65,1254.218333,1.035666667,25.92566667,1.659333333,3.466666667,122.5109333,0.789753267
BeCsP,CsBeP,24.66666667,3.666666667,6,57.62733333,1.516666667,0.406043333,0,7.901098333,20.37936,2.253333333,1.486666667,726.3666667,1412.983333,0.945333333,24.159,1.85,3.56,125.7133333,0.79045
BeCsSb,CsBeSb,36.66666667,4.333333333,6,87.904,1.47,0.513876667,0,7.274998333,19.33286,2.34,1.59,921.8593333,1848.483333,0.758,24.62766667,3.474666667,9.913333333,144.2366667,0.870666667
BrCs,CsBr,45,5,9,106.4,1.875,1.918315,0,7.8538525,22.37422,2.64,1.775,283.8,638.05,0.358,53.95,2.4995,3.945,41.2325,0.18011
AsCaCs,CsCaAs,36,4.666666667,6,82.63333333,1.323333333,0.42721,0,6.598555,17.87278667,2.53,1.773333333,835.65,1196.816667,0.406,27.593,3.052,12.77666667,84.93666667,0.957
Br3CaCs,CsCaBr3,36,4.4,10.8,82.536,2.134,2.113326,0,9.089693,19.960432,2.258,1.526,442.93,739.43,0.4622,57.0418,2.5578,5.606,53.317,0.474532
CaCl3Cs,CsCaCl3,25.2,3.8,10.8,55.866,2.254,2.264526,0,9.781991,21.293992,2.198,1.424,386.35,683.726,0.4652,31.9972,2.6142,4.046,50.602,0.4738534
CaCsF3,CsCaF3,20.4,3.2,10.8,45.996,2.746,2.133726,0,12.455093,27.988312,2.03,1.184,315.448,591.284,0.6722,30.4102,1.7034,2.282,46.44388,0.4739674
CaCsI3,CsCaI3,46.8,5,10.8,110.736,1.954,1.929786,0,8.272169,18.484612,2.336,1.64,515.47,814.79,0.3062,44.2858,3.6498,6.782,57.022,0.476494
CaCsN,CsCaN,27.33333333,4,6,62.33,1.61,0.133876667,0,8.180388333,21.54348667,2.43,1.61,493.3166667,926.2183333,0.643,29.08766667,1.56,3.663333333,75.0676,0.789753267
CsCaP,CsCaP,30,4.333333333,6,67.98333333,1.326666667,0.406043333,0,6.831251667,18.26622,2.513333333,1.736666667,578.0333333,1084.983333,0.552666667,27.321,1.750666667,3.756666667,78.27,0.79045
CaCsSb,CsCaSb,42,5,6,98.26,1.28,0.513876667,0,6.205151667,17.21972,2.6,1.84,773.526,1520.483333,0.365333333,27.78966667,3.375333333,10.11,96.79333333,0.870666667
AsCdCs,CsCdAs,45.33333333,5,9.333333333,106.74,1.553333333,0.42721,0,7.558775,19.55165,2.486666667,1.66,662.0063333,957.8166667,0.267333333,27.62333333,5.418666667,12.03,66.67,0.609666667
Br3CdCs,CsCdBr3,41.6,4.6,12.8,97,2.272,2.113326,0,9.665825,20.96775,2.232,1.458,338.7438,596.03,0.379,57.06,3.9778,5.158,42.357,0.266132
CdCl3Cs,CsCdCl3,30.8,4,12.8,70.33,2.392,2.264526,0,10.358123,22.30131,2.172,1.356,282.1638,540.326,0.382,32.0154,4.0342,3.598,39.642,0.2654534
CdCsF3,CsCdF3,26,3.4,12.8,60.46,2.884,2.133726,0,13.031225,28.99563,2.004,1.116,211.2618,447.884,0.589,30.4284,3.1234,1.834,35.48388,0.2655674
CdCsI3,CsCdI3,52.4,5.2,12.8,125.2,2.092,1.929786,0,8.848301,19.49193,2.31,1.572,411.2838,671.39,0.223,44.304,5.0698,6.334,46.062,0.268094
CdCsN,CsCdN,36.66666667,4.333333333,9.333333333,86.43666667,1.84,0.133876667,0,9.140608333,23.22235,2.386666667,1.496666667,319.673,687.2183333,0.504333333,29.118,3.926666667,2.916666667,56.80093333,0.442419933
CdCsP,CsCdP,39.33333333,4.666666667,9.333333333,92.09,1.556666667,0.406043333,0,7.791471667,19.94508333,2.47,1.623333333,404.3896667,845.9833333,0.414,27.35133333,4.117333333,3.01,60.00333333,0.443116667
CdCsSb,CsCdSb,51.33333333,5.333333333,9.333333333,122.3666667,1.51,0.513876667,0,7.165371667,18.89858333,2.556666667,1.726666667,599.8823333,1281.483333,0.226666667,27.82,5.742,9.363333333,78.52666667,0.523333333
ClCs,CsCl,36,4.5,9,84.175,1.975,2.044315,0,8.4307675,23.48552,2.59,1.69,236.65,591.63,0.3605,33.0795,2.5465,2.645,38.97,0.1795445
CsF,CsF,32,4,9,75.95,2.385,1.935315,0,10.6583525,29.06412,2.45,1.49,177.565,514.595,0.533,31.757,1.7875,1.175,35.5049,0.1796395
AsCsHg,CsHgAs,56,5.333333333,9.333333333,136.14,1.623333333,0.42721,0,8.040001667,20.16781333,2.503333333,1.633333333,542.0403333,821.023,0.237,28.27766667,7.046666667,10.69333333,53.14666667,0.3148
Br3CsHg,CsHgBr3,48,4.8,12.8,114.64,2.314,2.113326,0,9.954561,21.337448,2.242,1.442,266.7642,513.9538,0.3608,57.4526,4.9546,4.356,34.243,0.089212
Cl3CsHg,CsHgCl3,37.2,4.2,12.8,87.97,2.434,2.264526,0,10.646859,22.671008,2.182,1.34,210.1842,458.2498,0.3638,32.408,5.011,2.796,31.528,0.0885334
CsF3Hg,CsHgF3,32.4,3.6,12.8,78.1,2.926,2.133726,0,13.319961,29.365328,2.014,1.1,139.2822,365.8078,0.5708,30.821,4.1002,1.032,27.36988,0.0886474
CsHgI3,CsHgI3,58.8,5.4,12.8,142.84,2.134,1.929786,0,9.137037,19.861628,2.32,1.556,339.3042,589.3138,0.2048,44.6966,6.0466,5.532,37.948,0.091174
CsHgN,CsHgN,47.33333333,4.666666667,9.333333333,115.8366667,1.91,0.133876667,0,9.621835,23.83851333,2.403333333,1.47,199.707,550.4246667,0.474,29.77233333,5.554666667,1.58,43.2776,0.147553267
CsHgP,CsHgP,50,5,9.333333333,121.49,1.626666667,0.406043333,0,8.272698333,20.56124667,2.486666667,1.596666667,284.4236667,709.1896667,0.383666667,28.00566667,5.745333333,1.673333333,46.48,0.14825
CsHgSb,CsHgSb,62,5.666666667,9.333333333,151.7666667,1.58,0.513876667,0,7.646598333,19.51474667,2.573333333,1.7,479.9163333,1144.689667,0.196333333,28.47433333,7.37,8.026666667,65.00333333,0.228466667
CsI,CsI,54,5.5,9,129.9,1.725,1.765365,0,7.1725825,21.14437,2.705,1.87,344.25,700.85,0.228,43.32,3.4095,4.925,44.32,0.181745
AsCsMg,CsMgAs,33.33333333,4.333333333,6,77.37666667,1.426666667,0.42721,0,7.10958,18.92730333,2.336666667,1.66,771.65,1065.483333,0.531333333,27.23966667,3.114666667,12.83,75.91333333,0.807
Br3CsMg,CsMgBr3,34.4,4.2,10.8,79.382,2.196,2.113326,0,9.396308,20.593142,2.142,1.458,404.53,660.63,0.5374,56.8298,2.5954,5.638,47.903,0.384532
Cl3CsMg,CsMgCl3,23.6,3.6,10.8,52.712,2.316,2.264526,0,10.088606,21.926702,2.082,1.356,347.95,604.926,0.5404,31.7852,2.6518,4.078,45.188,0.3838534
CsF3Mg,CsMgF3,18.8,3,10.8,42.842,2.808,2.133726,0,12.761708,28.621022,1.914,1.116,277.048,512.484,0.7474,30.1982,1.741,2.314,41.02988,0.3839674
CsI3Mg,CsMgI3,45.2,4.8,10.8,107.582,2.016,1.929786,0,8.578784,19.117322,2.22,1.572,477.07,735.99,0.3814,44.0738,3.6874,6.814,51.608,0.386494
CsMgN,CsMgN,24.66666667,3.666666667,6,57.07333333,1.713333333,0.133876667,0,8.691413333,22.59800333,2.236666667,1.496666667,429.3166667,794.885,0.768333333,28.73433333,1.622666667,3.716666667,66.04426667,0.639753267
CsMgP,CsMgP,27.33333333,4,6,62.72666667,1.43,0.406043333,0,7.342276667,19.32073667,2.32,1.623333333,514.0333333,953.65,0.678,26.96766667,1.813333333,3.81,69.24666667,0.64045
CsMgSb,CsMgSb,39.33333333,4.666666667,6,93.00333333,1.383333333,0.513876667,0,6.716176667,18.27423667,2.406666667,1.726666667,709.526,1389.15,0.490666667,27.43633333,3.438,10.16333333,87.77,0.720666667
AsCsSr,CsSrAs,42,5,6,98.48,1.306666667,0.42721,0,6.459118333,17.59224667,2.59,1.826666667,813.9833333,1161.15,0.292333333,27.88,3.412,12.59666667,79.01333333,0.404666667
Br3CsSr,CsSrBr3,39.6,4.6,10.8,92.044,2.124,2.113326,0,9.006031,19.792108,2.294,1.558,429.93,718.03,0.394,57.214,2.7738,5.498,49.763,0.143132
Cl3CsSr,CsSrCl3,28.8,4,10.8,65.374,2.244,2.264526,0,9.698329,21.125668,2.234,1.456,373.35,662.326,0.397,32.1694,2.8302,3.938,47.048,0.1424534
CsF3Sr,CsSrF3,24,3.4,10.8,55.504,2.736,2.133726,0,12.371431,27.819988,2.066,1.216,302.448,569.884,0.604,30.5824,1.9194,2.174,42.88988,0.1425674
CsI3Sr,CsSrI3,50.4,5.2,10.8,120.244,1.944,1.929786,0,8.188507,18.316288,2.372,1.672,502.47,793.39,0.238,44.458,3.8658,6.674,53.468,0.145094