Compound,formula,Z,Period,Group,m,kai,EA,Nval,IE1,IE2,Rvdw,Rcov,MP,BP,Cp_g,Cp_mol,rho,E-fusion,E-vapor,ThermalConductivity
Cl2Zn,ZnCl2,21.33333333,3.333333333,15.33333333,45.43,2.656666667,2.411333333,0,11.77648633,21.86386333,1.836666667,1.066666667,345.3256667,552.79,0.448666667,31.096,4.522666667,4.583333333,45.23333333,0.386726
F2Zn,ZnF2,16,2.666666667,15.33333333,34.46333333,3.203333333,2.266,0,14.74659967,29.30199667,1.65,0.8,266.5456667,450.0766667,0.678666667,29.33266667,3.510666667,2.623333333,40.6132,0.386852667
Ga2O4Zn,ZnGa2O4,17.71428571,2.857142857,14.57142857,38.40428571,2.718571429,0.920640857,0,10.83785729,28.49701286,1.69,0.888571429,216.5637429,935.0288571,0.686571429,27.85171429,3.523428571,2.774,91.58051429,0.281867086
Ga2S4Zn,ZnGa2S4,22.28571429,3.428571429,14.57142857,47.58714286,2.227142857,1.27264,0,8.976120143,21.76374429,1.85,1.117142857,407.4208857,1293.641429,0.566571429,24.03571429,3.826857143,3.635714286,95.34571429,0.283251429
Ga2Se4Zn,ZnGa2Se4,32.57142857,4,14.57142857,74.38142857,2.21,1.24,0,8.628908714,20.53638429,1.907142857,1.197142857,467.7580286,1431.007143,0.345428571,25.55742857,5.460571429,5.732857143,104.6714286,0.293371429
Ga2Te4Zn,ZnGa2Te4,42.85714286,4.571428571,14.57142857,102.1757143,1.952857143,1.211885714,0,8.204457286,19.05638429,1.998571429,1.305714286,598.4494571,1604.15,0.277428571,25.76714286,6.272571429,12.64714286,118.5628571,0.295142857
I2Zn,ZnI2,45.33333333,4.666666667,15.33333333,106.3966667,2.323333333,2.0394,0,10.09890633,18.74233,1.99,1.306666667,488.7923333,698.4166667,0.272,44.75,5.673333333,7.623333333,52.36666667,0.38966
In2O4Zn,ZnIn2O4,22.85714286,3.142857143,14.57142857,51.28428571,2.71,0.920640857,0,10.777017,28.02705571,1.707142857,0.942857143,252.8024286,877.3145714,0.646571429,28.05457143,3.925142857,2.108285714,83.09194286,0.399009943
In2S4Zn,ZnIn2S4,27.42857143,3.714285714,14.57142857,60.46714286,2.218571429,1.27264,0,8.915279857,21.29378714,1.867142857,1.171428571,443.6595714,1235.927143,0.526571429,24.23857143,4.228571429,2.97,86.85714286,0.400394286
In2Se4Zn,ZnIn2Se4,37.71428571,4.285714286,14.57142857,87.26142857,2.201428571,1.24,0,8.568068429,20.06642714,1.924285714,1.251428571,503.9967143,1373.292857,0.305428571,25.76028571,5.862285714,5.067142857,96.18285714,0.410514286
In2Te4Zn,ZnIn2Te4,48,4.857142857,14.57142857,115.0557143,1.944285714,1.211885714,0,8.143617,18.58642714,2.015714286,1.36,634.6881429,1546.435714,0.237428571,25.97,6.674285714,11.98142857,110.0742857,0.412285714
La2O4Zn,ZnLa2O4,25.14285714,3.428571429,11.71428571,58.17,2.515714286,0.977783714,0,10.71717129,25.79525571,1.85,1.091428571,470.9167143,1287.886,0.635714286,28.16028571,3.592571429,2.948285714,132.5833714,0.204438514
La2S4Zn,ZnLa2S4,29.71428571,4,11.71428571,67.35285714,2.024285714,1.329782857,0,8.855434143,19.06198714,2.01,1.32,661.7738571,1646.498571,0.515714286,24.34428571,3.896,3.81,136.3485714,0.205822857
La2Se4Zn,ZnLa2Se4,40,4.571428571,11.71428571,94.14714286,2.007142857,1.297142857,0,8.508222714,17.83462714,2.067142857,1.4,722.111,1783.864286,0.294571429,25.866,5.529714286,5.907142857,145.6742857,0.215942857
La2Te4Zn,ZnLa2Te4,50.28571429,5.142857143,11.71428571,121.9414286,1.75,1.269028571,0,8.083771286,16.35462714,2.158571429,1.508571429,852.8024286,1957.007143,0.226571429,26.07571429,6.341714286,12.82142857,159.5657143,0.217714286
Ozn,ZnO,19,3,14,40.695,2.545,0.73056075,0,11.5061245,26.542745,1.765,0.92,373.5185,635.169,0.653,27.384,4.2845,3.786,59.35545,0.5801337
SZn,ZnS,23,3.5,14,48.73,2.115,1.03856,0,9.8771045,20.651135,1.905,1.12,540.5185,948.955,0.548,24.045,4.55,4.54,62.65,0.581345
O4Sc2Zn,ZnSc2O4,14.85714286,2.857142857,11.71428571,31.33,2.59,0.888640857,0,10.99848271,26.29261857,1.77,0.991428571,648.3452857,1108.457429,0.742285714,27.706,2.689428571,5.748285714,105.5062286,0.211009943
S4Sc2Zn,ZnSc2S4,19.42857143,3.428571429,11.71428571,40.51285714,2.098571429,1.24064,0,9.136745571,19.55935,1.93,1.22,839.2024286,1467.07,0.622285714,23.89,2.992857143,6.61,109.2714286,0.212394286
Sc2Se4Zn,ZnSc2Se4,29.71428571,4,11.71428571,67.30714286,2.081428571,1.208,0,8.789534143,18.33199,1.987142857,1.3,899.5395714,1604.435714,0.401142857,25.41171429,4.626571429,8.707142857,118.5971429,0.222514286
Sc2Te4Zn,ZnSc2Te4,40,4.571428571,11.71428571,95.10142857,1.824285714,1.179885714,0,8.365082714,16.85199,2.078571429,1.408571429,1030.231,1777.578571,0.333142857,25.62142857,5.438571429,15.62142857,132.4885714,0.224285714
SeZn,ZnSe,32,4,14,72.175,2.1,1.01,0,9.5732945,19.577195,1.955,1.19,593.3135,1069.15,0.3545,25.3765,5.9795,6.375,70.81,0.5902
TeZn,ZnTe,41,4.5,14,96.495,1.875,0.9854,0,9.2018995,18.282195,2.035,1.285,707.6685,1220.65,0.295,25.56,6.69,12.425,82.965,0.59175
O4Y2Zn,ZnY2O4,20,3.142857143,11.71428571,43.88714286,2.55,0.922640857,0,10.90014271,26.12811286,1.818571429,1.04,642.9167143,1253.886,0.665142857,27.99457143,3.114285714,4.434,122.2205143,0.215009943
S4Y2Zn,ZnY2S4,24.57142857,3.714285714,11.71428571,53.07,2.058571429,1.27464,0,9.038405571,19.39484429,1.978571429,1.268571429,833.7738571,1612.498571,0.545142857,24.17857143,3.417714286,5.295714286,125.9857143,0.216394286
Se4Y2Zn,ZnY2Se4,34.85714286,4.285714286,11.71428571,79.86428571,2.041428571,1.242,0,8.691194143,18.16748429,2.035714286,1.348571429,894.111,1749.864286,0.324,25.70028571,5.051428571,7.392857143,135.3114286,0.226514286
Te4Y2Zn,ZnY2Te4,45.14285714,4.857142857,11.71428571,107.6585714,1.784285714,1.213885714,0,8.266742714,16.68748429,2.127142857,1.457142857,1024.802429,1923.007143,0.256,25.91,5.863428571,14.30714286,149.2028571,0.228285714