formula,Z,Period,Group,m,kai,EA,IE1,IE2,Rvdw,Rcov,MP,BP,Cp_g,Cp_mol,rho,E-fusion,E-vapor,ThermalConductivity
CsHgP,50.0,5.0,9.33333333333,121.49,1.62666666667,0.406043333333,8.27269833333,20.5612466667,2.48666666667,1.59666666667,284.423666667,709.189666667,0.383666666667,28.0056666667,5.74533333333,1.67333333333,46.48,0.14825
CsHgSb,62.0,5.66666666667,9.33333333333,151.766666667,1.58,0.513876666667,7.64659833333,19.5147466667,2.57333333333,1.7,479.916333333,1144.68966667,0.196333333333,28.4743333333,7.37,8.02666666667,65.0033333333,0.228466666667
CsI,54.0,5.5,9.0,129.9,1.725,1.765365,7.1725825,21.14437,2.705,1.87,344.25,700.85,0.228,43.32,3.4095,4.925,44.32,0.181745
CsMgAs,33.3333333333,4.33333333333,6.0,77.3766666667,1.42666666667,0.42721,7.10958,18.9273033333,2.33666666667,1.66,771.65,1065.48333333,0.531333333333,27.2396666667,3.11466666667,12.83,75.9133333333,0.807
CsMgBr3,34.4,4.2,10.8,79.382,2.196,2.113326,9.396308,20.593142,2.142,1.458,404.53,660.63,0.5374,56.8298,2.5954,5.638,47.903,0.384532
CsMgCl3,23.6,3.6,10.8,52.712,2.316,2.264526,10.088606,21.926702,2.082,1.356,347.95,604.926,0.5404,31.7852,2.6518,4.078,45.188,0.3838534
CsMgF3,18.8,3.0,10.8,42.842,2.808,2.133726,12.761708,28.621022,1.914,1.116,277.048,512.484,0.7474,30.1982,1.741,2.314,41.02988,0.3839674
CsMgI3,45.2,4.8,10.8,107.582,2.016,1.929786,8.578784,19.117322,2.22,1.572,477.07,735.99,0.3814,44.0738,3.6874,6.814,51.608,0.386494
CsMgN,24.6666666667,3.66666666667,6.0,57.0733333333,1.71333333333,0.133876666667,8.69141333333,22.5980033333,2.23666666667,1.49666666667,429.316666667,794.885,0.768333333333,28.7343333333,1.62266666667,3.71666666667,66.0442666667,0.639753266667
CsMgP,27.3333333333,4.0,6.0,62.7266666667,1.43,0.406043333333,7.34227666667,19.3207366667,2.32,1.62333333333,514.033333333,953.65,0.678,26.9676666667,1.81333333333,3.81,69.2466666667,0.64045
CsMgSb,39.3333333333,4.66666666667,6.0,93.0033333333,1.38333333333,0.513876666667,6.71617666667,18.2742366667,2.40666666667,1.72666666667,709.526,1389.15,0.490666666667,27.4363333333,3.438,10.1633333333,87.77,0.720666666667
CsSrAs,42.0,5.0,6.0,98.48,1.30666666667,0.42721,6.45911833333,17.5922466667,2.59,1.82666666667,813.983333333,1161.15,0.292333333333,27.88,3.412,12.5966666667,79.0133333333,0.404666666667
CsSrBr3,39.6,4.6,10.8,92.044,2.124,2.113326,9.006031,19.792108,2.294,1.558,429.93,718.03,0.394,57.214,2.7738,5.498,49.763,0.143132
CsSrCl3,28.8,4.0,10.8,65.374,2.244,2.264526,9.698329,21.125668,2.234,1.456,373.35,662.326,0.397,32.1694,2.8302,3.938,47.048,0.1424534
CsSrF3,24.0,3.4,10.8,55.504,2.736,2.133726,12.371431,27.819988,2.066,1.216,302.448,569.884,0.604,30.5824,1.9194,2.174,42.88988,0.1425674
CsSrI3,50.4,5.2,10.8,120.244,1.944,1.929786,8.188507,18.316288,2.372,1.672,502.47,793.39,0.238,44.458,3.8658,6.674,53.468,0.145094
CsSrN,33.3333333333,4.33333333333,6.0,78.1766666667,1.59333333333,0.133876666667,8.04095166667,21.2629466667,2.49,1.66333333333,471.65,890.551666667,0.529333333333,29.3746666667,1.92,3.48333333333,69.1442666667,0.237419933333
CsSrP,36.0,4.66666666667,6.0,83.83,1.31,0.406043333333,6.691815,17.98568,2.57333333333,1.79,556.366666667,1049.31666667,0.439,27.608,2.11066666667,3.57666666667,72.3466666667,0.238116666667
CsSrSb,48.0,5.33333333333,6.0,114.106666667,1.26333333333,0.513876666667,6.065715,16.93918,2.66,1.89333333333,751.859333333,1484.81666667,0.251666666667,28.0766666667,3.73533333333,9.93,90.87,0.318333333333
CsZnAs,39.3333333333,4.66666666667,9.33333333333,91.07,1.54,0.42721,7.69223466667,19.9036766667,2.43,1.59333333333,694.825666667,1004.48333333,0.319666666667,27.4133333333,4.91533333333,12.38,71.8133333333,0.673666666667
CsZnBr3,38.0,4.4,12.8,87.598,2.264,2.113326,9.7459008,21.178966,2.198,1.418,358.4354,624.03,0.4104,56.934,3.6758,5.368,45.443,0.304532
CsZnCl3,27.2,3.8,12.8,60.928,2.384,2.264526,10.4381988,22.512526,2.138,1.316,301.8554,568.326,0.4134,31.8894,3.7322,3.808,42.728,0.3038534
CsZnF3,22.4,3.2,12.8,51.058,2.876,2.133726,13.1113008,29.206846,1.97,1.076,230.9534,475.884,0.6204,30.3024,2.8214,2.044,38.56988,0.3039674
CsZnI3,48.8,5.0,12.8,115.798,2.084,1.929786,8.9283768,19.703146,2.276,1.532,430.9754,699.39,0.2544,44.178,4.7678,6.544,49.148,0.306494
CsZnN,30.6666666667,4.0,9.33333333333,70.7666666667,1.82666666667,0.133876666667,9.274068,23.5743766667,2.33,1.43,352.492333333,733.885,0.556666666667,28.908,3.42333333333,3.26666666667,61.9442666667,0.506419933333
CsZnP,33.3333333333,4.33333333333,9.33333333333,76.42,1.54333333333,0.406043333333,7.92493133333,20.29711,2.41333333333,1.55666666667,437.209,892.65,0.466333333333,27.1413333333,3.614,3.36,65.1466666667,0.507116666667
CsZnSb,45.3333333333,5.0,9.33333333333,106.696666667,1.49666666667,0.513876666667,7.29883133333,19.25061,2.5,1.66,632.701666667,1328.15,0.279,27.61,5.23866666667,9.71333333333,83.67,0.587333333333
Ga2O3,17.2,2.8,14.8,37.488,2.788,0.9966729,10.5705504,29.27872,1.66,0.876,153.78184,1054.9728,0.7,28.0388,3.219,2.3692,104.47054,0.16256044
Ga2S3,22.0,3.4,14.8,47.13,2.272,1.366272,8.6157264,22.208788,1.828,1.116,354.18184,1431.516,0.574,24.032,3.5376,3.274,108.424,0.164014
Ga2Se3,32.8,4.0,14.8,75.264,2.254,1.332,8.2511544,20.92006,1.888,1.2,417.53584,1575.75,0.3418,25.6298,5.253,5.476,118.216,0.17464
Ga2Te3,43.6,4.6,14.8,104.448,1.984,1.30248,7.8054804,19.36606,1.984,1.314,554.76184,1757.55,0.2704,25.85,6.1056,12.736,132.802,0.1765
GaAs,32.0,4.0,14.0,72.32,1.995,0.555,7.8939505,19.552175,1.86,1.215,696.5323,1695.65,0.351,25.335,5.8155,16.645,144.23,0.454
GaBr3,34.0,4.0,16.0,77.355,2.6725,2.59875,10.36017525,21.3220375,1.855,1.185,275.19115,874.5,0.44875,63.275,3.816,5.7475,75.05875,0.102415
GaCl3,20.5,3.25,16.0,44.0175,2.8225,2.78775,11.22554775,22.9889875,1.78,1.0575,204.46615,804.87,0.4525,31.96925,3.8865,3.7975,71.665,0.10156675
GaF3,14.5,2.5,16.0,31.68,3.4375,2.62425,14.56692525,31.3568875,1.57,0.7575,115.83865,689.3175,0.71125,29.9855,2.748,1.5925,66.46735,0.10170925
GaI3,47.5,4.75,16.0,112.605,2.4475,2.369325,9.33827025,19.4772625,1.9525,1.3275,365.86615,968.7,0.25375,47.33,5.181,7.2175,79.69,0.1048675
GaN,19.0,3.0,14.0,41.865,2.425,0.115,10.2667005,25.058225,1.71,0.97,183.0323,1289.7525,0.7065,27.577,3.5775,2.975,129.4264,0.2031299
GaP,23.0,3.5,14.0,50.345,2.0,0.52325,8.2429955,20.142325,1.835,1.16,310.1073,1527.9,0.571,24.927,3.8635,3.115,134.23,0.204175
GaSb,41.0,4.5,14.0,95.76,1.93,0.685,7.3038455,18.572575,1.965,1.315,603.3463,2181.15,0.29,25.63,6.3005,12.645,162.015,0.3245
Hg3As2,61.2,5.2,13.2,150.328,2.012,0.324,10.17794,18.68976,2.078,1.272,576.6526,733.5214,0.2156,26.6458,10.4112,12.454,48.54,0.25084
Hg3N2,50.8,4.4,13.2,125.964,2.356,-0.028,12.07614,23.0946,1.958,1.076,165.8526,408.8034,0.5,28.4394,8.6208,1.518,36.69712,0.05014392
Hg3P2,54.0,4.8,13.2,132.748,2.016,0.2986,10.457176,19.16188,2.058,1.228,267.5126,599.3214,0.3916,26.3194,8.8496,1.63,40.54,0.05098
Hg3Sb2,68.4,5.6,13.2,169.08,1.96,0.428,9.705856,17.90608,2.162,1.352,502.1038,1121.9214,0.1668,26.8818,10.7992,9.254,62.768,0.14724
HgAl2O4,19.7142857143,2.85714285714,14.5714285714,45.5085714286,2.69714285714,0.960926571429,10.9830337143,28.1283285714,1.71285714286,0.908571428571,331.243857143,939.260142857,0.800857142857,27.6992857143,3.52142857143,3.51114285714,93.5062285714,0.689209942857
HgAl2S4,24.2857142857,3.42857142857,14.5714285714,54.6914285714,2.20571428571,1.31292571429,9.12129657143,21.39506,1.87285714286,1.13714285714,522.101,1297.87271429,0.680857142857,23.8832857143,3.82485714286,4.37285714286,97.2714285714,0.690594285714
HgAl2Se4,34.5714285714,4.0,14.5714285714,81.4857142857,2.18857142857,1.28028571429,8.77408514286,20.1677,1.93,1.21714285714,582.438142857,1435.23842857,0.459714285714,25.405,5.45857142857,6.47,106.597142857,0.700714285714
HgAl2Te4,44.8571428571,4.57142857143,14.5714285714,109.28,1.93142857143,1.25217142857,8.34963371429,18.6877,2.02142857143,1.32571428571,713.129571429,1608.38128571,0.391714285714,25.6147142857,6.27057142857,13.3842857143,120.488571429,0.702485714286
HgBr2,50.0,4.66666666667,15.3333333333,120.133333333,2.60666666667,2.24333333333,11.3550333333,20.6462666667,1.97666666667,1.22,255.407,431.223,0.362666666667,59.7876666667,6.59133333333,4.63,29.5833333333,0.0286133333333
HgCl2,38.0,4.0,15.3333333333,90.5,2.74,2.41133333333,12.1242533333,22.128,1.91,1.10666666667,192.540333333,369.329666667,0.366,31.9603333333,6.654,2.89666666667,26.5666666667,0.0278593333333
HgF2,32.6666666667,3.33333333333,15.3333333333,79.5333333333,3.28666666667,2.266,15.0943666667,29.5661333333,1.72333333333,0.84,113.760333333,266.616333333,0.596,30.197,5.642,0.936666666667,21.9465333333,0.027986
HgGa2O4,24.8571428571,3.14285714286,14.5714285714,57.72,2.75428571429,0.920640857143,10.9869002857,28.6102142857,1.72142857143,0.905714285714,151.084314286,856.403,0.651142857143,28.2221428571,4.43685714286,2.05114285714,83.5805142857,0.128067085714
HgGa2S4,29.4285714286,3.71428571429,14.5714285714,66.9028571429,2.26285714286,1.27264,9.12516314286,21.8769457143,1.88142857143,1.13428571429,341.941457143,1215.01557143,0.531142857143,24.4061428571,4.74028571429,2.91285714286,87.3457142857,0.129451428571
HgGa2Se4,39.7142857143,4.28571428571,14.5714285714,93.6971428571,2.24571428571,1.24,8.77795171429,20.6495857143,1.93857142857,1.21428571429,402.2786,1352.38128571,0.31,25.9278571429,6.374,5.01,96.6714285714,0.139571428571
HgGa2Te4,50.0,4.85714285714,14.5714285714,121.491428571,1.98857142857,1.21188571429,8.35350028571,19.1695857143,2.03,1.32285714286,532.970028571,1525.52414286,0.242,26.1375714286,7.186,11.9242857143,110.562857143,0.141342857143
HgI2,62.0,5.33333333333,15.3333333333,151.466666667,2.40666666667,2.0394,10.4466733333,19.0064666667,2.06333333333,1.34666666667,336.007,514.956333333,0.189333333333,45.6143333333,7.80466666667,5.93666666667,33.7,0.0307933333333
HgIn2O4,30.0,3.42857142857,14.5714285714,70.6,2.74571428571,0.920640857143,10.92606,28.1402571429,1.73857142857,0.96,187.323,798.688714286,0.611142857143,28.425,4.83857142857,1.38542857143,75.0919428571,0.245209942857
HgIn2S4,34.5714285714,4.0,14.5714285714,79.7828571429,2.25428571429,1.27264,9.06432285714,21.4069885714,1.89857142857,1.18857142857,378.180142857,1157.30128571,0.491142857143,24.609,5.142,2.24714285714,78.8571428571,0.246594285714
HgIn2Se4,44.8571428571,4.57142857143,14.5714285714,106.577142857,2.23714285714,1.24,8.71711142857,20.1796285714,1.95571428571,1.26857142857,438.517285714,1294.667,0.27,26.1307142857,6.77571428571,4.34428571429,88.1828571429,0.256714285714
HgIn2Te4,55.1428571429,5.14285714286,14.5714285714,134.371428571,1.98,1.21188571429,8.29266,18.6996285714,2.04714285714,1.37714285714,569.208714286,1467.80985714,0.202,26.3404285714,7.58771428571,11.2585714286,102.074285714,0.258485714286
HgLa2O4,32.2857142857,3.71428571429,11.7142857143,77.4857142857,2.55142857143,0.977783714286,10.8662142857,25.9084571429,1.88142857143,1.10857142857,405.437285714,1209.26014286,0.600285714286,28.5307142857,4.506,2.22542857143,124.583371429,0.0506385142857
HgLa2S4,36.8571428571,4.28571428571,11.7142857143,86.6685714286,2.06,1.32978285714,9.00447714286,19.1751885714,2.04142857143,1.33714285714,596.294428571,1567.87271429,0.480285714286,24.7147142857,4.80942857143,3.08714285714,128.348571429,0.0520228571429
HgLa2Se4,47.1428571429,4.85714285714,11.7142857143,113.462857143,2.04285714286,1.29714285714,8.65726571429,17.9478285714,2.09857142857,1.41714285714,656.631571429,1705.23842857,0.259142857143,26.2364285714,6.44314285714,5.18428571429,137.674285714,0.0621428571429
HgLa2Te4,57.4285714286,5.42857142857,11.7142857143,141.257142857,1.78571428571,1.26902857143,8.23281428571,16.4678285714,2.19,1.52571428571,787.323,1878.38128571,0.191142857143,26.4461428571,7.25514285714,12.0985714286,151.565714286,0.0639142857143
HgO,44.0,4.0,14.0,108.3,2.67,0.73056075,12.027775,26.93895,1.875,0.98,144.3405,359.9785,0.529,28.6805,7.4815,1.256,31.35545,0.0418337
HgS,48.0,4.5,14.0,116.335,2.24,1.03856,10.398755,21.04734,2.015,1.18,311.3405,673.7645,0.424,25.3415,7.747,2.01,34.65,0.043045
HgSc2O4,22.0,3.14285714286,11.7142857143,50.6457142857,2.62571428571,0.888640857143,11.1475257143,26.40582,1.80142857143,1.00857142857,582.865857143,1029.83157143,0.706857142857,28.0764285714,3.60285714286,5.02542857143,97.5062285714,0.0572099428571
HgSc2S4,26.5714285714,3.71428571429,11.7142857143,59.8285714286,2.13428571429,1.24064,9.28578857143,19.6725514286,1.96142857143,1.23714285714,773.723,1388.44414286,0.586857142857,24.2604285714,3.90628571429,5.88714285714,101.271428571,0.0585942857143
HgSc2Se4,36.8571428571,4.28571428571,11.7142857143,86.6228571429,2.11714285714,1.208,8.93857714286,18.4451914286,2.01857142857,1.31714285714,834.060142857,1525.80985714,0.365714285714,25.7821428571,5.54,7.98428571429,110.597142857,0.0687142857143
HgSc2Te4,47.1428571429,4.85714285714,11.7142857143,114.417142857,1.86,1.17988571429,8.51412571429,16.9651914286,2.11,1.42571428571,964.751571429,1698.95271429,0.297714285714,25.9918571429,6.352,14.8985714286,124.488571429,0.0704857142857
HgSe,57.0,5.0,14.0,139.78,2.225,1.01,10.094945,19.9734,2.065,1.25,364.1355,793.9595,0.2305,26.673,9.1765,3.845,42.81,0.0519
HgTe,66.0,5.5,14.0,164.1,2.0,0.9854,9.72355,18.6784,2.145,1.345,478.4905,945.4595,0.171,26.8565,9.887,9.895,54.965,0.05345
HgY2O4,27.1428571429,3.42857142857,11.7142857143,63.2028571429,2.58571428571,0.922640857143,11.0491857143,26.2413142857,1.85,1.05714285714,577.437285714,1175.26014286,0.629714285714,28.365,4.02771428571,3.71114285714,114.220514286,0.0612099428571
HgY2S4,31.7142857143,4.0,11.7142857143,72.3857142857,2.09428571429,1.27464,9.18744857143,19.5080457143,2.01,1.28571428571,768.294428571,1533.87271429,0.509714285714,24.549,4.33114285714,4.57285714286,117.985714286,0.0625942857143
HgY2Se4,42.0,4.57142857143,11.7142857143,99.18,2.07714285714,1.242,8.84023714286,18.2806857143,2.06714285714,1.36571428571,828.631571429,1671.23842857,0.288571428571,26.0707142857,5.96485714286,6.67,127.311428571,0.0727142857143
HgY2Te4,52.2857142857,5.14285714286,11.7142857143,126.974285714,1.82,1.21388571429,8.41578571429,16.8006857143,2.15857142857,1.47428571429,959.323,1844.38128571,0.220571428571,26.2804285714,6.77685714286,13.5842857143,141.202857143,0.0744857142857
In2O3,24.4,3.2,14.8,55.52,2.776,0.9966729,10.485374,28.62078,1.684,0.952,204.516,974.1728,0.644,28.3228,3.7814,1.4372,92.58654,0.32656044
In2S3,29.2,3.8,14.8,65.162,2.26,1.366272,8.53055,21.550848,1.852,1.192,404.916,1350.716,0.518,24.316,4.1,2.342,96.54,0.328014
In2Se3,40.0,4.4,14.8,93.296,2.242,1.332,8.165978,20.26212,1.912,1.276,468.27,1494.95,0.2858,25.9138,5.8154,4.544,106.332,0.33864
In2Te3,50.8,5.0,14.8,122.48,1.972,1.30248,7.720304,18.70812,2.008,1.39,605.496,1676.75,0.2144,26.134,6.668,11.804,120.918,0.3405
InAs,41.0,4.5,14.0,94.86,1.98,0.555,7.78748,18.72975,1.89,1.31,759.95,1594.65,0.281,25.69,6.5185,15.48,129.375,0.659
InBr3,38.5,4.25,16.0,88.625,2.665,2.59875,10.30694,20.910825,1.87,1.2325,306.9,824.0,0.41375,63.4525,4.1675,5.165,67.63125,0.204915
InCl3,25.0,3.5,16.0,55.2875,2.815,2.78775,11.1723125,22.577775,1.795,1.105,236.175,754.37,0.4175,32.14675,4.238,3.215,64.2375,0.20406675
InF3,19.0,2.75,16.0,42.95,3.43,2.62425,14.51369,30.945675,1.585,0.805,147.5475,638.8175,0.67625,30.163,3.0995,1.01,59.03985,0.20420925
InI3,52.0,5.0,16.0,123.875,2.44,2.369325,9.285035,19.06605,1.9675,1.375,397.575,918.2,0.21875,47.5075,5.5325,6.635,72.2625,0.2073675
InN,28.0,3.5,14.0,64.405,2.41,0.115,10.16023,24.2358,1.74,1.065,246.45,1188.7525,0.6365,27.932,4.2805,1.81,114.5714,0.4081299
InP,32.0,4.0,14.0,72.885,1.985,0.52325,8.136525,19.3199,1.865,1.255,373.525,1426.9,0.501,25.282,4.5665,1.95,119.375,0.409175
InSb,50.0,5.0,14.0,118.3,1.915,0.685,7.197375,17.75015,1.995,1.41,666.764,2080.15,0.22,25.985,7.0035,11.48,147.16,0.5295
K3As,22.5,4.0,4.5,48.055,1.16,0.5786025,5.702647475,28.3698,2.525,1.8,525.025,996.4,0.65,28.36,2.07375,8.6725,65.775,0.8935
K3N,16.0,3.5,4.5,32.8275,1.375,0.3586025,6.889022475,31.122825,2.45,1.6775,268.275,793.45125,0.82775,29.481,0.95475,1.8375,58.3732,0.76806495
K3P,18.0,3.75,4.5,37.0675,1.1625,0.5627275,5.877169975,28.664875,2.5125,1.7725,331.8125,912.525,0.76,28.156,1.09775,1.9075,60.775,0.7685875
K3Sb,27.0,4.25,4.5,59.775,1.1275,0.6436025,5.407594975,27.88,2.5775,1.85,478.432,1239.15,0.6195,28.5075,2.31625,6.6725,74.6675,0.82875
KBaAs,36.0,4.66666666667,6.0,83.7733333333,1.29666666667,0.437156666667,6.44697576667,20.0743433333,2.42666666667,1.75333333333,808.983333333,1346.48333333,0.43,27.4366666667,3.36433333333,12.6766666667,83.1666666667,0.57
KBaBr3,36.0,4.4,10.8,83.22,2.118,2.119294,8.99874546,21.281366,2.196,1.514,426.93,829.23,0.4766,56.948,2.7452,5.546,52.255,0.242332
KBaCl3,25.2,3.8,10.8,56.55,2.238,2.270494,9.69104346,22.614926,2.136,1.412,370.35,773.526,0.4796,31.9034,2.8016,3.986,49.54,0.2416534
KBaF3,20.4,3.2,10.8,46.68,2.73,2.139694,12.36414546,29.309246,1.968,1.172,299.448,681.084,0.6866,30.3164,1.8908,2.222,45.38188,0.2417674
KBaI3,46.8,5.0,10.8,111.42,1.938,1.935754,8.18122146,19.805546,2.274,1.628,499.47,904.59,0.3206,44.192,3.8372,6.722,55.96,0.244294
KBaN,27.3333333333,4.0,6.0,63.47,1.58333333333,0.143823333333,8.0288091,23.7450433333,2.32666666667,1.59,466.65,1075.885,0.667,28.9313333333,1.87233333333,3.56333333333,73.2976,0.402753266667
KBaP,30.0,4.33333333333,6.0,69.1233333333,1.3,0.41599,6.67967243333,20.4677766667,2.41,1.71666666667,551.366666667,1234.65,0.576666666667,27.1646666667,2.063,3.65666666667,76.5,0.40345
KBaSb,42.0,5.0,6.0,99.4,1.25333333333,0.523823333333,6.05357243333,19.4212766667,2.49666666667,1.82,746.859333333,1670.15,0.389333333333,27.6333333333,3.68766666667,10.01,95.0233333333,0.483666666667
KBeAs,18.6666666667,3.33333333333,6.0,41.0106666667,1.52333333333,0.437156666667,7.8173211,22.8101133333,2.04333333333,1.39666666667,995.65,1554.15,0.970333333333,23.561,2.81033333333,12.66,135.433333333,1.17866666667
KBeBr3,25.6,3.6,10.8,57.5624,2.254,2.119294,9.82095266,22.922828,1.966,1.3,538.93,953.83,0.8008,54.6226,2.4128,5.536,83.615,0.607532
KBeCl3,14.8,3.0,10.8,30.8924,2.374,2.270494,10.51325066,24.256388,1.906,1.198,482.35,898.126,0.8038,29.578,2.4692,3.976,80.9,0.6068534
KBeF3,10.0,2.4,10.8,21.0224,2.866,2.139694,13.18635266,30.950708,1.738,0.958,411.448,805.684,1.0108,27.991,1.5584,2.212,76.74188,0.6069674
KBeI3,36.4,4.2,10.8,85.7624,2.074,1.935754,9.00342866,21.447008,2.044,1.414,611.47,1029.19,0.6448,41.8666,3.5048,6.712,87.32,0.609494
KBeN,10.0,2.66666666667,6.0,20.7073333333,1.81,0.143823333333,9.39915443333,26.4808133333,1.94333333333,1.23333333333,653.316666667,1283.55166667,1.20733333333,25.0556666667,1.31833333333,3.54666666667,125.564266667,1.01141993333
KBeP,12.6666666667,3.0,6.0,26.3606666667,1.52666666667,0.41599,8.05001776667,23.2035466667,2.02666666667,1.36,738.033333333,1442.31666667,1.117,23.289,1.509,3.64,128.766666667,1.01211666667
KBeSb,24.6666666667,3.66666666667,6.0,56.6373333333,1.48,0.523823333333,7.42391776667,22.1570466667,2.11333333333,1.46333333333,933.526,1877.81666667,0.929666666667,23.7576666667,3.13366666667,9.99333333333,147.29,1.09233333333
KBr,27.0,4.0,9.0,59.5,1.89,1.933235,8.07723165,26.6105,2.3,1.585,301.3,682.05,0.6155,52.645,1.988,4.065,45.8125,0.51261
KCaAs,24.0,4.0,6.0,51.3666666667,1.33333333333,0.437156666667,6.74747443333,20.6969733333,2.30333333333,1.64666666667,847.316666667,1226.15,0.577666666667,26.723,2.711,12.8566666667,87.99,1.17866666667
KCaBr3,28.8,4.0,10.8,63.776,2.14,2.119294,9.17904466,21.654944,2.122,1.45,449.93,757.03,0.5652,56.5198,2.3532,5.654,55.149,0.607532
KCaCl3,18.0,3.4,10.8,37.106,2.26,2.270494,9.87134266,22.988504,2.062,1.348,393.35,701.326,0.5682,31.4752,2.4096,4.094,52.434,0.6068534
KCaF3,13.2,2.8,10.8,27.236,2.752,2.139694,12.54444466,29.682824,1.894,1.108,322.448,608.884,0.7752,29.8882,1.4988,2.33,48.27588,0.6069674
KCaI3,39.6,4.6,10.8,91.976,1.96,1.935754,8.36152066,20.179124,2.2,1.564,522.47,832.39,0.4092,43.7638,3.4452,6.83,58.854,0.609494