Compound,type,st,a1,a2,a3,n1,n2,n3,Ecoh,BM,bandgap,formula
ABZ_KZnAs_K_Cd_As,ABZ,KZnAs,K,Cd,As,2,2,2,2.59371,30.25,0,KCdAs
ABZ_KZnAs_K_Cd_Sb,ABZ,KZnAs,K,Cd,Sb,2,2,2,2.40166,41.05,0,KCdSb
ABZ_KZnAs_K_Hg_N,ABZ,KZnAs,K,Hg,N,2,2,2,2.68267,50.15,0.0605,KHgN
ABZ_KZnAs_K_Hg_P,ABZ,KZnAs,K,Hg,P,2,2,2,2.50851,31,0.1356,KHgP
ABZ_KZnAs_K_Hg_As,ABZ,KZnAs,K,Hg,As,2,2,2,2.34642,30.25,0.1465,KHgAs
ABZ_KZnAs_K_Hg_Sb,ABZ,KZnAs,K,Hg,Sb,2,2,2,2.18119,41.75,0.1872,KHgSb
ABZ_KZnAs_Rb_Be_N,ABZ,KZnAs,Rb,Be,N,2,2,2,4.50705,81.7,1.3284,RbBeN
ABZ_KZnAs_Rb_Be_P,ABZ,KZnAs,Rb,Be,P,2,2,2,3.74947,44.9,0.9322,RbBeP
ABZ_KZnAs_Rb_Be_As,ABZ,KZnAs,Rb,Be,As,2,2,2,3.48325,36.9,0.7638,RbBeAs
ABZ_KZnAs_Rb_Be_Sb,ABZ,KZnAs,Rb,Be,Sb,2,2,2,3.16403,41.85,0.8508,RbBeSb
ABZ_KZnAs_Rb_Mg_N,ABZ,KZnAs,Rb,Mg,N,2,2,2,3.68798,47.7,0,RbMgN
ABZ_KZnAs_Rb_Mg_P,ABZ,KZnAs,Rb,Mg,P,2,2,2,3.14155,33.15,0.8554,RbMgP
ABZ_KZnAs_Rb_Mg_As,ABZ,KZnAs,Rb,Mg,As,2,2,2,2.94527,26.3,0.5736,RbMgAs
ABZ_KZnAs_Rb_Mg_Sb,ABZ,KZnAs,Rb,Mg,Sb,2,2,2,2.7014,38.3,0.8289,RbMgSb
ABZ_KZnAs_Rb_Ca_N,ABZ,KZnAs,Rb,Ca,N,2,2,2,3.80242,33.6,0.2492,RbCaN
ABZ_KZnAs_Rb_Ca_P,ABZ,KZnAs,Rb,Ca,P,2,2,2,3.36938,26.25,0.4748,RbCaP
ABZ_KZnAs_Rb_Ca_As,ABZ,KZnAs,Rb,Ca,As,2,2,2,3.19964,23.05,0.3205,RbCaAs
ABZ_KZnAs_Rb_Ca_Sb,ABZ,KZnAs,Rb,Ca,Sb,2,2,2,3.02263,26.2,0.7276,RbCaSb
ABZ_KZnAs_Rb_Sr_N,ABZ,KZnAs,Rb,Sr,N,2,2,2,3.55283,27.85,0.4254,RbSrN
ABZ_KZnAs_Rb_Sr_P,ABZ,KZnAs,Rb,Sr,P,2,2,2,3.27984,30.95,1.0309,RbSrP
ABZ_KZnAs_Rb_Sr_As,ABZ,KZnAs,Rb,Sr,As,2,2,2,3.13821,28.1,0.5579,RbSrAs
ABZ_KZnAs_Rb_Sr_Sb,ABZ,KZnAs,Rb,Sr,Sb,2,2,2,2.98851,26.15,0.549,RbSrSb
ABZ_KZnAs_Rb_Ba_N,ABZ,KZnAs,Rb,Ba,N,2,2,2,3.55442,26.8,0.713,RbBaN
ABZ_KZnAs_Rb_Ba_P,ABZ,KZnAs,Rb,Ba,P,2,2,2,3.39706,28.05,0.9539,RbBaP
ABZ_KZnAs_Rb_Ba_As,ABZ,KZnAs,Rb,Ba,As,2,2,2,3.26659,23.1,0.5758,RbBaAs
ABZ_KZnAs_Rb_Ba_Sb,ABZ,KZnAs,Rb,Ba,Sb,2,2,2,3.13169,33.85,0.4973,RbBaSb
ABZ_KZnAs_Rb_Zn_N,ABZ,KZnAs,Rb,Zn,N,2,2,2,3.31779,56.6,0,RbZnN
ABZ_KZnAs_Rb_Zn_P,ABZ,KZnAs,Rb,Zn,P,2,2,2,2.92185,40.8,0.6552,RbZnP
ABZ_KZnAs_Rb_Zn_As,ABZ,KZnAs,Rb,Zn,As,2,2,2,2.70698,30.8,0.1622,RbZnAs
ABZ_KZnAs_Rb_Zn_Sb,ABZ,KZnAs,Rb,Zn,Sb,2,2,2,2.47686,41.3,0.3056,RbZnSb
ABZ_KZnAs_Rb_Cd_N,ABZ,KZnAs,Rb,Cd,N,2,2,2,2.96295,45.9,0,RbCdN
ABZ_KZnAs_Rb_Cd_P,ABZ,KZnAs,Rb,Cd,P,2,2,2,2.71385,28.45,0.1533,RbCdP
ABZ_KZnAs_Rb_Cd_As,ABZ,KZnAs,Rb,Cd,As,2,2,2,2.54212,25.7,0,RbCdAs
ABZ_KZnAs_Rb_Cd_Sb,ABZ,KZnAs,Rb,Cd,Sb,2,2,2,2.36201,39.65,0,RbCdSb
ABZ_KZnAs_Rb_Hg_N,ABZ,KZnAs,Rb,Hg,N,2,2,2,2.59921,45,0.052,RbHgN
ABZ_KZnAs_Rb_Hg_P,ABZ,KZnAs,Rb,Hg,P,2,2,2,2.45259,31.5,0.1082,RbHgP
ABZ_KZnAs_Rb_Hg_As,ABZ,KZnAs,Rb,Hg,As,2,2,2,2.29962,27.25,0.1223,RbHgAs
ABZ_KZnAs_Rb_Hg_Sb,ABZ,KZnAs,Rb,Hg,Sb,2,2,2,2.14664,22.05,0.1474,RbHgSb
ABZ_KZnAs_Cs_Be_N,ABZ,KZnAs,Cs,Be,N,2,2,2,4.26162,80.6,2.6187,CsBeN
ABZ_KZnAs_Cs_Be_P,ABZ,KZnAs,Cs,Be,P,2,2,2,3.67896,41.5,1.0491,CsBeP
ABZ_KZnAs_Cs_Be_As,ABZ,KZnAs,Cs,Be,As,2,2,2,3.42566,38.35,0.8243,CsBeAs
ABZ_KZnAs_Cs_Be_Sb,ABZ,KZnAs,Cs,Be,Sb,2,2,2,3.12418,26.65,0.7342,CsBeSb
ABZ_KZnAs_Cs_Mg_N,ABZ,KZnAs,Cs,Mg,N,2,2,2,3.61182,47.95,0.493,CsMgN
ABZ_KZnAs_Cs_Mg_P,ABZ,KZnAs,Cs,Mg,P,2,2,2,3.10625,27.3,0.8637,CsMgP
ABZ_KZnAs_Cs_Mg_As,ABZ,KZnAs,Cs,Mg,As,2,2,2,2.91601,21.9,0.6287,CsMgAs
ABZ_KZnAs_Cs_Mg_Sb,ABZ,KZnAs,Cs,Mg,Sb,2,2,2,2.68513,37.2,0.8042,CsMgSb
ABZ_KZnAs_Cs_Ca_N,ABZ,KZnAs,Cs,Ca,N,2,2,2,3.75711,33.25,0.3058,CsCaN
ABZ_KZnAs_Cs_Ca_P,ABZ,KZnAs,Cs,Ca,P,2,2,2,3.33785,23.75,0.4435,CsCaP
ABZ_KZnAs_Cs_Ca_As,ABZ,KZnAs,Cs,Ca,As,2,2,2,3.17009,23.5,0.3682,CsCaAs
ABZ_KZnAs_Cs_Ca_Sb,ABZ,KZnAs,Cs,Ca,Sb,2,2,2,2.96068,18.05,0.5212,CsCaSb
ABZ_KZnAs_Cs_Sr_N,ABZ,KZnAs,Cs,Sr,N,2,2,2,3.51744,29.15,0.5021,CsSrN
ABZ_KZnAs_Cs_Sr_P,ABZ,KZnAs,Cs,Sr,P,2,2,2,3.18715,19.25,0.2145,CsSrP
ABZ_KZnAs_Cs_Sr_As,ABZ,KZnAs,Cs,Sr,As,2,2,2,3.03738,19.95,0.1249,CsSrAs
ABZ_KZnAs_Cs_Sr_Sb,ABZ,KZnAs,Cs,Sr,Sb,2,2,2,2.91891,18.65,0.782,CsSrSb
ABZ_KZnAs_Cs_Ba_N,ABZ,KZnAs,Cs,Ba,N,2,2,2,3.53719,24.55,0.6343,CsBaN
ABZ_KZnAs_Cs_Ba_P,ABZ,KZnAs,Cs,Ba,P,2,2,2,3.32993,28.8,0.8591,CsBaP
ABZ_KZnAs_Cs_Ba_As,ABZ,KZnAs,Cs,Ba,As,2,2,2,3.20645,23,0.7979,CsBaAs
ABZ_KZnAs_Cs_Ba_Sb,ABZ,KZnAs,Cs,Ba,Sb,2,2,2,3.08506,25.05,0.7173,CsBaSb
ABZ_KZnAs_Cs_Zn_N,ABZ,KZnAs,Cs,Zn,N,2,2,2,3.2182,59.3,0.3222,CsZnN
ABZ_KZnAs_Cs_Zn_P,ABZ,KZnAs,Cs,Zn,P,2,2,2,2.87441,30.2,0.7097,CsZnP
ABZ_KZnAs_Cs_Zn_As,ABZ,KZnAs,Cs,Zn,As,2,2,2,2.66909,32.85,0.2005,CsZnAs
ABZ_KZnAs_Cs_Zn_Sb,ABZ,KZnAs,Cs,Zn,Sb,2,2,2,2.4548,33.7,0.3109,CsZnSb
ABZ_KZnAs_Cs_Cd_N,ABZ,KZnAs,Cs,Cd,N,2,2,2,2.90237,46.15,0,CsCdN
ABZ_KZnAs_Cs_Cd_P,ABZ,KZnAs,Cs,Cd,P,2,2,2,2.68359,31.15,0.2145,CsCdP
ABZ_KZnAs_Cs_Cd_As,ABZ,KZnAs,Cs,Cd,As,2,2,2,2.51901,25.4,0,CsCdAs
ABZ_KZnAs_Cs_Cd_Sb,ABZ,KZnAs,Cs,Cd,Sb,2,2,2,2.3519,26.65,0,CsCdSb
ABZ_KZnAs_Cs_Hg_N,ABZ,KZnAs,Cs,Hg,N,2,2,2,2.54251,38.55,0.0538,CsHgN
ABZ_KZnAs_Cs_Hg_P,ABZ,KZnAs,Cs,Hg,P,2,2,2,2.42433,28.3,0.1008,CsHgP
ABZ_KZnAs_Cs_Hg_As,ABZ,KZnAs,Cs,Hg,As,2,2,2,2.28037,24.3,0.1113,CsHgAs
ABZ_KZnAs_Cs_Hg_Sb,ABZ,KZnAs,Cs,Hg,Sb,2,2,2,2.14074,26.05,0.1358,CsHgSb
ABZ_MgAgAs_Li_Be_N,ABZ,MgAgAs,Li,Be,N,4,4,4,4.28204,124.05,2.167,LiBeN
ABZ_MgAgAs_Li_Be_P,ABZ,MgAgAs,Li,Be,P,4,4,4,3.56236,71,0.8719,LiBeP
ABZ_MgAgAs_Li_Be_As,ABZ,MgAgAs,Li,Be,As,4,4,4,3.32864,66.8,1.2161,LiBeAs
ABZ_MgAgAs_Li_Be_Sb,ABZ,MgAgAs,Li,Be,Sb,4,4,4,3.05179,59.9,1.6267,LiBeSb
ABZ_MgAgAs_Li_Mg_N,ABZ,MgAgAs,Li,Mg,N,4,4,4,3.92151,87.35,2.4697,LiMgN
ABZ_MgAgAs_Li_Mg_P,ABZ,MgAgAs,Li,Mg,P,4,4,4,3.38698,47.95,0.0351,LiMgP
ABZ_MgAgAs_Li_Mg_As,ABZ,MgAgAs,Li,Mg,As,4,4,4,3.17198,51.2,0.426,LiMgAs
ABZ_MgAgAs_Li_Mg_Sb,ABZ,MgAgAs,Li,Mg,Sb,4,4,4,2.91289,40.35,0.9695,LiMgSb
ABZ_MgAgAs_Li_Ca_N,ABZ,MgAgAs,Li,Ca,N,4,4,4,4.2597,79.5,2.1711,LiCaN
ABZ_MgAgAs_Li_Ca_P,ABZ,MgAgAs,Li,Ca,P,4,4,4,3.89472,49.15,1.1366,LiCaP
ABZ_MgAgAs_Li_Ca_As,ABZ,MgAgAs,Li,Ca,As,4,4,4,3.69899,40.75,1.0167,LiCaAs
ABZ_MgAgAs_Li_Ca_Sb,ABZ,MgAgAs,Li,Ca,Sb,4,4,4,3.46873,66.2,0.7145,LiCaSb
ABZ_MgAgAs_Li_Sr_N,ABZ,MgAgAs,Li,Sr,N,4,4,4,3.96361,62.25,1.8468,LiSrN
ABZ_MgAgAs_Li_Sr_P,ABZ,MgAgAs,Li,Sr,P,4,4,4,3.74391,38.6,1.0903,LiSrP
ABZ_MgAgAs_Li_Sr_As,ABZ,MgAgAs,Li,Sr,As,4,4,4,3.5731,41.7,0.9875,LiSrAs
ABZ_MgAgAs_Li_Sr_Sb,ABZ,MgAgAs,Li,Sr,Sb,4,4,4,3.38196,58.7,0.7059,LiSrSb
ABZ_MgAgAs_Li_Ba_N,ABZ,MgAgAs,Li,Ba,N,4,4,4,3.86534,56.7,1.0729,LiBaN
ABZ_MgAgAs_Li_Ba_P,ABZ,MgAgAs,Li,Ba,P,4,4,4,3.7538,38.25,0.7266,LiBaP
ABZ_MgAgAs_Li_Ba_As,ABZ,MgAgAs,Li,Ba,As,4,4,4,3.61108,38.55,0.647,LiBaAs
ABZ_MgAgAs_Li_Ba_Sb,ABZ,MgAgAs,Li,Ba,Sb,4,4,4,3.46001,37.25,0.452,LiBaSb
ABZ_MgAgAs_Li_Zn_N,ABZ,MgAgAs,Li,Zn,N,4,4,4,3.28712,80.05,0.0253,LiZnN
ABZ_MgAgAs_Li_Zn_P,ABZ,MgAgAs,Li,Zn,P,4,4,4,2.92472,44.15,1.8449,LiZnP
ABZ_MgAgAs_Li_Zn_As,ABZ,MgAgAs,Li,Zn,As,4,4,4,2.74891,49.25,1.9829,LiZnAs
ABZ_MgAgAs_Li_Zn_Sb,ABZ,MgAgAs,Li,Zn,Sb,4,4,4,2.54003,46.8,2.0937,LiZnSb
ABZ_MgAgAs_Li_Cd_N,ABZ,MgAgAs,Li,Cd,N,4,4,4,3.06049,85.1,0,LiCdN
ABZ_MgAgAs_Li_Cd_P,ABZ,MgAgAs,Li,Cd,P,4,4,4,2.83262,47.7,1.3076,LiCdP
ABZ_MgAgAs_Li_Cd_As,ABZ,MgAgAs,Li,Cd,As,4,4,4,2.68428,51.05,1.3014,LiCdAs
ABZ_MgAgAs_Li_Cd_Sb,ABZ,MgAgAs,Li,Cd,Sb,4,4,4,2.50847,28.55,1.8423,LiCdSb
ABZ_MgAgAs_Li_Hg_N,ABZ,MgAgAs,Li,Hg,N,4,4,4,2.64156,63.8,0,LiHgN
ABZ_MgAgAs_Li_Hg_P,ABZ,MgAgAs,Li,Hg,P,4,4,4,2.53106,55.6,1.0274,LiHgP
ABZ_MgAgAs_Li_Hg_As,ABZ,MgAgAs,Li,Hg,As,4,4,4,2.41542,50,0.275,LiHgAs
ABZ_MgAgAs_Li_Hg_Sb,ABZ,MgAgAs,Li,Hg,Sb,4,4,4,2.2715,35.15,0.6883,LiHgSb
ABZ_MgAgAs_Na_Be_N,ABZ,MgAgAs,Na,Be,N,4,4,4,2.91928,54.3,0,NaBeN
ABZ_MgAgAs_Na_Be_P,ABZ,MgAgAs,Na,Be,P,4,4,4,2.62036,49.55,0.9654,NaBeP
ABZ_MgAgAs_Na_Be_As,ABZ,MgAgAs,Na,Be,As,4,4,4,2.49861,38.25,0.8106,NaBeAs
ABZ_MgAgAs_Na_Be_Sb,ABZ,MgAgAs,Na,Be,Sb,4,4,4,2.33563,40.9,1.1743,NaBeSb
ABZ_MgAgAs_Na_Mg_N,ABZ,MgAgAs,Na,Mg,N,4,4,4,2.93401,68.9,0,NaMgN
ABZ_MgAgAs_Na_Mg_P,ABZ,MgAgAs,Na,Mg,P,4,4,4,2.66854,41.1,0.274,NaMgP
ABZ_MgAgAs_Na_Mg_As,ABZ,MgAgAs,Na,Mg,As,4,4,4,2.52579,35.3,0.2868,NaMgAs
ABZ_MgAgAs_Na_Mg_Sb,ABZ,MgAgAs,Na,Mg,Sb,4,4,4,2.354,35.75,0.8506,NaMgSb
ABZ_MgAgAs_Na_Ca_N,ABZ,MgAgAs,Na,Ca,N,4,4,4,3.54224,57.1,1.5517,NaCaN
ABZ_MgAgAs_Na_Ca_P,ABZ,MgAgAs,Na,Ca,P,4,4,4,3.32726,42.2,1.1762,NaCaP
ABZ_MgAgAs_Na_Ca_As,ABZ,MgAgAs,Na,Ca,As,4,4,4,3.16658,34.1,1.0761,NaCaAs
ABZ_MgAgAs_Na_Ca_Sb,ABZ,MgAgAs,Na,Ca,Sb,4,4,4,2.98786,55.4,0.8381,NaCaSb
ABZ_MgAgAs_Na_Sr_N,ABZ,MgAgAs,Na,Sr,N,4,4,4,3.37932,52.15,1.1249,NaSrN
ABZ_MgAgAs_Na_Sr_P,ABZ,MgAgAs,Na,Sr,P,4,4,4,3.2767,30.85,1.0812,NaSrP
ABZ_MgAgAs_Na_Sr_As,ABZ,MgAgAs,Na,Sr,As,4,4,4,3.12975,27.65,0.9945,NaSrAs
ABZ_MgAgAs_Na_Sr_Sb,ABZ,MgAgAs,Na,Sr,Sb,4,4,4,2.97513,8.7,0.7912,NaSrSb
ABZ_MgAgAs_Na_Ba_N,ABZ,MgAgAs,Na,Ba,N,4,4,4,3.38564,46.05,0.7607,NaBaN
ABZ_MgAgAs_Na_Ba_P,ABZ,MgAgAs,Na,Ba,P,4,4,4,3.38364,35.45,0.6466,NaBaP
ABZ_MgAgAs_Na_Ba_As,ABZ,MgAgAs,Na,Ba,As,4,4,4,3.25536,23.2,0.5796,NaBaAs
ABZ_MgAgAs_Na_Zn_N,ABZ,MgAgAs,Na,Zn,N,4,4,4,2.38525,53.05,0,NaZnN
ABZ_MgAgAs_Na_Zn_P,ABZ,MgAgAs,Na,Zn,P,4,4,4,2.21577,27.6,0.0699,NaZnP
ABZ_MgAgAs_Na_Zn_As,ABZ,MgAgAs,Na,Zn,As,4,4,4,2.11177,33.8,0,NaZnAs
ABZ_MgAgAs_Na_Zn_Sb,ABZ,MgAgAs,Na,Zn,Sb,4,4,4,1.97722,40.35,0,NaZnSb
ABZ_MgAgAs_Na_Cd_N,ABZ,MgAgAs,Na,Cd,N,4,4,4,2.33929,56.6,0,NaCdN
ABZ_MgAgAs_Na_Cd_P,ABZ,MgAgAs,Na,Cd,P,4,4,4,2.23952,41.5,0.1358,NaCdP
ABZ_MgAgAs_Na_Cd_As,ABZ,MgAgAs,Na,Cd,As,4,4,4,2.14372,42.75,0,NaCdAs
ABZ_MgAgAs_Na_Cd_Sb,ABZ,MgAgAs,Na,Cd,Sb,4,4,4,2.02209,51.6,0.0181,NaCdSb
ABZ_MgAgAs_Na_Hg_N,ABZ,MgAgAs,Na,Hg,N,4,4,4,2.04521,32.5,0,NaHgN
ABZ_MgAgAs_Na_Hg_P,ABZ,MgAgAs,Na,Hg,P,4,4,4,1.995,36.3,0,NaHgP
ABZ_MgAgAs_Na_Hg_As,ABZ,MgAgAs,Na,Hg,As,4,4,4,1.92153,41.4,0,NaHgAs
ABZ_MgAgAs_Na_Hg_Sb,ABZ,MgAgAs,Na,Hg,Sb,4,4,4,1.82277,47.8,0,NaHgSb
ABZ_MgAgAs_K_Be_N,ABZ,MgAgAs,K,Be,N,4,4,4,2.13207,19.55,0,KBeN
ABZ_MgAgAs_K_Be_P,ABZ,MgAgAs,K,Be,P,4,4,4,2.01701,19,0,KBeP
ABZ_MgAgAs_K_Be_As,ABZ,MgAgAs,K,Be,As,4,4,4,1.94712,15.25,0,KBeAs
ABZ_MgAgAs_K_Be_Sb,ABZ,MgAgAs,K,Be,Sb,4,4,4,1.85324,1,0,KBeSb
ABZ_MgAgAs_K_Mg_N,ABZ,MgAgAs,K,Mg,N,4,4,4,2.23679,33.4,0,KMgN
ABZ_MgAgAs_K_Mg_P,ABZ,MgAgAs,K,Mg,P,4,4,4,2.1388,17.1,0,KMgP
ABZ_MgAgAs_K_Mg_As,ABZ,MgAgAs,K,Mg,As,4,4,4,2.04802,20.05,0,KMgAs
ABZ_MgAgAs_K_Mg_Sb,ABZ,MgAgAs,K,Mg,Sb,4,4,4,1.94309,35.8,0,KMgSb
ABZ_MgAgAs_K_Ca_N,ABZ,MgAgAs,K,Ca,N,4,4,4,3.00186,41.85,1.3363,KCaN
ABZ_MgAgAs_K_Ca_P,ABZ,MgAgAs,K,Ca,P,4,4,4,2.84657,24.4,1.5494,KCaP
ABZ_MgAgAs_K_Ca_As,ABZ,MgAgAs,K,Ca,As,4,4,4,2.71429,26.05,1.0402,KCaAs
ABZ_MgAgAs_K_Ca_Sb,ABZ,MgAgAs,K,Ca,Sb,4,4,4,2.57259,9.2,1.0775,KCaSb
ABZ_MgAgAs_K_Sr_N,ABZ,MgAgAs,K,Sr,N,4,4,4,2.93397,46.65,1.1921,KSrN
ABZ_MgAgAs_K_Sr_P,ABZ,MgAgAs,K,Sr,P,4,4,4,2.87576,27.75,1.5432,KSrP
ABZ_MgAgAs_K_Sr_As,ABZ,MgAgAs,K,Sr,As,4,4,4,2.74744,21.1,1.0862,KSrAs
ABZ_MgAgAs_K_Sr_Sb,ABZ,MgAgAs,K,Sr,Sb,4,4,4,2.61859,30.75,1.1163,KSrSb
ABZ_MgAgAs_K_Ba_N,ABZ,MgAgAs,K,Ba,N,4,4,4,3.03727,40.6,1.2536,KBaN
ABZ_MgAgAs_K_Ba_P,ABZ,MgAgAs,K,Ba,P,4,4,4,3.07381,23.7,1.162,KBaP
ABZ_MgAgAs_K_Ba_As,ABZ,MgAgAs,K,Ba,As,4,4,4,2.95571,23.85,1.0749,KBaAs
ABZ_MgAgAs_K_Ba_Sb,ABZ,MgAgAs,K,Ba,Sb,4,4,4,2.84388,27.75,0.9182,KBaSb
ABZ_MgAgAs_K_Zn_N,ABZ,MgAgAs,K,Zn,N,4,4,4,1.85948,14.95,0,KZnN
ABZ_MgAgAs_K_Zn_P,ABZ,MgAgAs,K,Zn,P,4,4,4,1.77172,14.75,0,KZnP
ABZ_MgAgAs_K_Zn_As,ABZ,MgAgAs,K,Zn,As,4,4,4,1.7048,16.65,0,KZnAs
ABZ_MgAgAs_K_Zn_Sb,ABZ,MgAgAs,K,Zn,Sb,4,4,4,1.61674,31.1,0,KZnSb
ABZ_MgAgAs_K_Cd_N,ABZ,MgAgAs,K,Cd,N,4,4,4,1.84186,21.1,0,KCdN
ABZ_MgAgAs_K_Cd_P,ABZ,MgAgAs,K,Cd,P,4,4,4,1.81628,17.25,0,KCdP
ABZ_MgAgAs_K_Cd_As,ABZ,MgAgAs,K,Cd,As,4,4,4,1.7541,17.65,0,KCdAs
ABZ_MgAgAs_K_Cd_Sb,ABZ,MgAgAs,K,Cd,Sb,4,4,4,1.67805,4.85,0,KCdSb
ABZ_MgAgAs_K_Hg_N,ABZ,MgAgAs,K,Hg,N,4,4,4,1.71535,11.85,0,KHgN
ABZ_MgAgAs_K_Hg_P,ABZ,MgAgAs,K,Hg,P,4,4,4,1.65663,11.65,0,KHgP
ABZ_MgAgAs_K_Hg_As,ABZ,MgAgAs,K,Hg,As,4,4,4,1.60314,14.05,0,KHgAs
ABZ_MgAgAs_K_Hg_Sb,ABZ,MgAgAs,K,Hg,Sb,4,4,4,1.53384,22.05,0,KHgSb
ABZ_MgAgAs_Rb_Be_N,ABZ,MgAgAs,Rb,Be,N,4,4,4,1.89764,13.3,0,RbBeN
ABZ_MgAgAs_Rb_Be_P,ABZ,MgAgAs,Rb,Be,P,4,4,4,1.80104,14.25,0,RbBeP
ABZ_MgAgAs_Rb_Be_As,ABZ,MgAgAs,Rb,Be,As,4,4,4,1.74137,14.35,0,RbBeAs
ABZ_MgAgAs_Rb_Be_Sb,ABZ,MgAgAs,Rb,Be,Sb,4,4,4,1.66076,3.4,0,RbBeSb
ABZ_MgAgAs_Rb_Mg_N,ABZ,MgAgAs,Rb,Mg,N,4,4,4,1.96871,13.35,0,RbMgN
ABZ_MgAgAs_Rb_Mg_P,ABZ,MgAgAs,Rb,Mg,P,4,4,4,1.91975,14.05,0,RbMgP
ABZ_MgAgAs_Rb_Mg_As,ABZ,MgAgAs,Rb,Mg,As,4,4,4,1.8457,14.05,0,RbMgAs
ABZ_MgAgAs_Rb_Mg_Sb,ABZ,MgAgAs,Rb,Mg,Sb,4,4,4,1.76276,20.2,0,RbMgSb
ABZ_MgAgAs_Rb_Ca_N,ABZ,MgAgAs,Rb,Ca,N,4,4,4,2.75382,40.4,0.8229,RbCaN
ABZ_MgAgAs_Rb_Ca_P,ABZ,MgAgAs,Rb,Ca,P,4,4,4,2.63394,25.8,1.0541,RbCaP
ABZ_MgAgAs_Rb_Ca_As,ABZ,MgAgAs,Rb,Ca,As,4,4,4,2.5126,22.35,0.6663,RbCaAs
ABZ_MgAgAs_Rb_Ca_Sb,ABZ,MgAgAs,Rb,Ca,Sb,4,4,4,2.38175,15.8,0.778,RbCaSb
ABZ_MgAgAs_Rb_Sr_N,ABZ,MgAgAs,Rb,Sr,N,4,4,4,2.7064,37.5,0.761,RbSrN
ABZ_MgAgAs_Rb_Sr_P,ABZ,MgAgAs,Rb,Sr,P,4,4,4,2.68489,22.35,1.1908,RbSrP
ABZ_MgAgAs_Rb_Sr_As,ABZ,MgAgAs,Rb,Sr,As,4,4,4,2.56709,19.7,0.8007,RbSrAs
ABZ_MgAgAs_Rb_Sr_Sb,ABZ,MgAgAs,Rb,Sr,Sb,4,4,4,2.44831,22.35,0.9177,RbSrSb
ABZ_MgAgAs_Rb_Ba_N,ABZ,MgAgAs,Rb,Ba,N,4,4,4,2.84108,35.5,1.0313,RbBaN
ABZ_MgAgAs_Rb_Ba_P,ABZ,MgAgAs,Rb,Ba,P,4,4,4,2.91307,26.25,1.2192,RbBaP
ABZ_MgAgAs_Rb_Ba_As,ABZ,MgAgAs,Rb,Ba,As,4,4,4,2.80446,25.3,1.1539,RbBaAs
ABZ_MgAgAs_Rb_Ba_Sb,ABZ,MgAgAs,Rb,Ba,Sb,4,4,4,2.7022,35.6,1.0544,RbBaSb
ABZ_MgAgAs_Rb_Zn_N,ABZ,MgAgAs,Rb,Zn,N,4,4,4,1.70324,12.5,0,RbZnN
ABZ_MgAgAs_Rb_Zn_P,ABZ,MgAgAs,Rb,Zn,P,4,4,4,1.61005,11.8,0,RbZnP
ABZ_MgAgAs_Rb_Zn_As,ABZ,MgAgAs,Rb,Zn,As,4,4,4,1.55016,12.3,0,RbZnAs
ABZ_MgAgAs_Rb_Zn_Sb,ABZ,MgAgAs,Rb,Zn,Sb,4,4,4,1.47121,12.85,0,RbZnSb
ABZ_MgAgAs_Rb_Cd_N,ABZ,MgAgAs,Rb,Cd,N,4,4,4,1.67865,10.1,0,RbCdN
ABZ_MgAgAs_Rb_Cd_P,ABZ,MgAgAs,Rb,Cd,P,4,4,4,1.6456,9.1,0,RbCdP
ABZ_MgAgAs_Rb_Cd_As,ABZ,MgAgAs,Rb,Cd,As,4,4,4,1.59138,14.3,0,RbCdAs
ABZ_MgAgAs_Rb_Cd_Sb,ABZ,MgAgAs,Rb,Cd,Sb,4,4,4,1.52734,28.8,0,RbCdSb
ABZ_MgAgAs_Rb_Hg_N,ABZ,MgAgAs,Rb,Hg,N,4,4,4,1.60747,9.2,0,RbHgN
ABZ_MgAgAs_Rb_Hg_P,ABZ,MgAgAs,Rb,Hg,P,4,4,4,1.52705,11,0,RbHgP
ABZ_MgAgAs_Rb_Hg_As,ABZ,MgAgAs,Rb,Hg,As,4,4,4,1.47556,7.35,0,RbHgAs
ABZ_MgAgAs_Rb_Hg_Sb,ABZ,MgAgAs,Rb,Hg,Sb,4,4,4,1.41159,18.05,0,RbHgSb
ABZ_MgAgAs_Cs_Be_N,ABZ,MgAgAs,Cs,Be,N,4,4,4,1.80186,7.4,0,CsBeN
ABZ_MgAgAs_Cs_Be_P,ABZ,MgAgAs,Cs,Be,P,4,4,4,1.67806,12.6,0,CsBeP
ABZ_MgAgAs_Cs_Be_As,ABZ,MgAgAs,Cs,Be,As,4,4,4,1.62303,9.05,0,CsBeAs
ABZ_MgAgAs_Cs_Mg_N,ABZ,MgAgAs,Cs,Mg,N,4,4,4,1.80673,8.9,0,CsMgN
ABZ_MgAgAs_Cs_Mg_P,ABZ,MgAgAs,Cs,Mg,P,4,4,4,1.76616,10.35,0,CsMgP
ABZ_MgAgAs_Cs_Mg_As,ABZ,MgAgAs,Cs,Mg,As,4,4,4,1.70543,11.8,0,CsMgAs
ABZ_MgAgAs_Cs_Mg_Sb,ABZ,MgAgAs,Cs,Mg,Sb,4,4,4,1.63876,0.2,0,CsMgSb
ABZ_MgAgAs_Cs_Ca_N,ABZ,MgAgAs,Cs,Ca,N,4,4,4,2.61223,39.3,0.7189,CsCaN
ABZ_MgAgAs_Cs_Ca_P,ABZ,MgAgAs,Cs,Ca,P,4,4,4,2.49376,22.75,0.7776,CsCaP
ABZ_MgAgAs_Cs_Ca_As,ABZ,MgAgAs,Cs,Ca,As,4,4,4,2.37713,23.4,0.4188,CsCaAs
ABZ_MgAgAs_Cs_Ca_Sb,ABZ,MgAgAs,Cs,Ca,Sb,4,4,4,2.2428,4.6,0.4015,CsCaSb
ABZ_MgAgAs_Cs_Sr_N,ABZ,MgAgAs,Cs,Sr,N,4,4,4,2.56333,35.45,0.6638,CsSrN
ABZ_MgAgAs_Cs_Sr_P,ABZ,MgAgAs,Cs,Sr,P,4,4,4,2.55702,21.85,0.9658,CsSrP
ABZ_MgAgAs_Cs_Sr_As,ABZ,MgAgAs,Cs,Sr,As,4,4,4,2.44627,17.05,0.641,CsSrAs
ABZ_MgAgAs_Cs_Sr_Sb,ABZ,MgAgAs,Cs,Sr,Sb,4,4,4,2.32794,26,0.6701,CsSrSb
ABZ_MgAgAs_Cs_Ba_N,ABZ,MgAgAs,Cs,Ba,N,4,4,4,2.71862,39.25,0.9864,CsBaN
ABZ_MgAgAs_Cs_Ba_P,ABZ,MgAgAs,Cs,Ba,P,4,4,4,2.80998,25.8,1.3257,CsBaP
ABZ_MgAgAs_Cs_Ba_As,ABZ,MgAgAs,Cs,Ba,As,4,4,4,2.71,22.8,1.2029,CsBaAs
ABZ_MgAgAs_Cs_Ba_Sb,ABZ,MgAgAs,Cs,Ba,Sb,4,4,4,2.60756,12.7,1.1638,CsBaSb
ABZ_MgAgAs_Cs_Zn_N,ABZ,MgAgAs,Cs,Zn,N,4,4,4,1.63873,6.6,0,CsZnN
ABZ_MgAgAs_Cs_Zn_P,ABZ,MgAgAs,Cs,Zn,P,4,4,4,1.5338,12.95,0,CsZnP
ABZ_MgAgAs_Cs_Zn_As,ABZ,MgAgAs,Cs,Zn,As,4,4,4,1.47761,8.1,0,CsZnAs
ABZ_MgAgAs_Cs_Zn_Sb,ABZ,MgAgAs,Cs,Zn,Sb,4,4,4,1.40437,20.05,0,CsZnSb
ABZ_MgAgAs_Cs_Cd_N,ABZ,MgAgAs,Cs,Cd,N,4,4,4,1.5998,11.85,0,CsCdN
ABZ_MgAgAs_Cs_Cd_P,ABZ,MgAgAs,Cs,Cd,P,4,4,4,1.54825,11.85,0,CsCdP
ABZ_MgAgAs_Cs_Cd_As,ABZ,MgAgAs,Cs,Cd,As,4,4,4,1.49787,4.2,0,CsCdAs
ABZ_MgAgAs_Cs_Cd_Sb,ABZ,MgAgAs,Cs,Cd,Sb,4,4,4,1.43953,13.15,0,CsCdSb
ABZ_MgAgAs_Cs_Hg_N,ABZ,MgAgAs,Cs,Hg,N,4,4,4,1.57089,6.3,0,CsHgN
ABZ_MgAgAs_Cs_Hg_P,ABZ,MgAgAs,Cs,Hg,P,4,4,4,1.47132,8,0,CsHgP
ABZ_MgAgAs_Cs_Hg_As,ABZ,MgAgAs,Cs,Hg,As,4,4,4,1.42022,9.35,0,CsHgAs
ABZ_MgAgAs_Cs_Hg_Sb,ABZ,MgAgAs,Cs,Hg,Sb,4,4,4,1.35548,2.2,0,CsHgSb
ABZ_PbClF_Li_Be_N,ABZ,PbClF,Li,Be,N,2,2,2,5.56034,143.4,5.0069,LiBeN
ABZ_PbClF_Li_Be_P,ABZ,PbClF,Li,Be,P,2,2,2,4.28599,79.8,1.7197,LiBeP
ABZ_PbClF_Li_Be_As,ABZ,PbClF,Li,Be,As,2,2,2,3.94471,62.25,1.3545,LiBeAs
ABZ_PbClF_Li_Be_Sb,ABZ,PbClF,Li,Be,Sb,2,2,2,3.48386,59.75,0.7564,LiBeSb
ABZ_PbClF_Li_Mg_N,ABZ,PbClF,Li,Mg,N,2,2,2,4.47105,78.45,1.1515,LiMgN
ABZ_PbClF_Li_Mg_P,ABZ,PbClF,Li,Mg,P,2,2,2,3.60934,53.7,1.8324,LiMgP
ABZ_PbClF_Li_Mg_As,ABZ,PbClF,Li,Mg,As,2,2,2,3.37089,43.15,1.405,LiMgAs
ABZ_PbClF_Li_Mg_Sb,ABZ,PbClF,Li,Mg,Sb,2,2,2,3.04524,53.6,0.9687,LiMgSb
ABZ_PbClF_Li_Ca_N,ABZ,PbClF,Li,Ca,N,2,2,2,4.62276,63.9,0,LiCaN
ABZ_PbClF_Li_Ca_P,ABZ,PbClF,Li,Ca,P,2,2,2,3.88687,37,0.7778,LiCaP
ABZ_PbClF_Li_Ca_As,ABZ,PbClF,Li,Ca,As,2,2,2,3.58101,30.25,1.2166,LiCaAs
ABZ_PbClF_Li_Ca_Sb,ABZ,PbClF,Li,Ca,Sb,2,2,2,3.29675,37,1.5944,LiCaSb
ABZ_PbClF_Li_Sr_N,ABZ,PbClF,Li,Sr,N,2,2,2,4.37796,54.85,0,LiSrN
ABZ_PbClF_Li_Sr_P,ABZ,PbClF,Li,Sr,P,2,2,2,3.75862,32.95,0.4711,LiSrP
ABZ_PbClF_Li_Sr_As,ABZ,PbClF,Li,Sr,As,2,2,2,3.55116,28.65,0.27,LiSrAs
ABZ_PbClF_Li_Sr_Sb,ABZ,PbClF,Li,Sr,Sb,2,2,2,3.25489,23.3,0.4921,LiSrSb
ABZ_PbClF_Li_Ba_N,ABZ,PbClF,Li,Ba,N,2,2,2,4.34402,44.9,0.0561,LiBaN
ABZ_PbClF_Li_Ba_P,ABZ,PbClF,Li,Ba,P,2,2,2,3.8139,31.3,0.511,LiBaP
ABZ_PbClF_Li_Ba_As,ABZ,PbClF,Li,Ba,As,2,2,2,3.62399,29.3,0.3552,LiBaAs
ABZ_PbClF_Li_Ba_Sb,ABZ,PbClF,Li,Ba,Sb,2,2,2,3.36026,18.05,0.4846,LiBaSb
ABZ_PbClF_Li_Zn_N,ABZ,PbClF,Li,Zn,N,2,2,2,3.89572,103.65,0.5154,LiZnN
ABZ_PbClF_Li_Zn_P,ABZ,PbClF,Li,Zn,P,2,2,2,3.27929,62.5,1.1651,LiZnP
ABZ_PbClF_Li_Zn_As,ABZ,PbClF,Li,Zn,As,2,2,2,3.03224,54.8,0.8372,LiZnAs
ABZ_PbClF_Li_Zn_Sb,ABZ,PbClF,Li,Zn,Sb,2,2,2,2.71907,38.15,0,LiZnSb
ABZ_PbClF_Li_Cd_N,ABZ,PbClF,Li,Cd,N,2,2,2,3.4291,78.65,0,LiCdN
ABZ_PbClF_Li_Cd_P,ABZ,PbClF,Li,Cd,P,2,2,2,2.99477,60.35,0.4955,LiCdP
ABZ_PbClF_Li_Cd_As,ABZ,PbClF,Li,Cd,As,2,2,2,2.81233,48.15,0.0327,LiCdAs
ABZ_PbClF_Li_Cd_Sb,ABZ,PbClF,Li,Cd,Sb,2,2,2,2.57897,48.7,0.257,LiCdSb
ABZ_PbClF_Li_Hg_N,ABZ,PbClF,Li,Hg,N,2,2,2,3.05667,60.3,0,LiHgN
ABZ_PbClF_Li_Hg_P,ABZ,PbClF,Li,Hg,P,2,2,2,2.576,52,0.2065,LiHgP
ABZ_PbClF_Li_Hg_As,ABZ,PbClF,Li,Hg,As,2,2,2,2.42974,45.25,0.5662,LiHgAs
ABZ_PbClF_Li_Hg_Sb,ABZ,PbClF,Li,Hg,Sb,2,2,2,2.28379,56.2,0.2169,LiHgSb
ABZ_PbClF_Na_Be_N,ABZ,PbClF,Na,Be,N,2,2,2,5.06593,84.4,0,NaBeN
ABZ_PbClF_Na_Be_P,ABZ,PbClF,Na,Be,P,2,2,2,3.96045,64,1.7998,NaBeP
ABZ_PbClF_Na_Be_As,ABZ,PbClF,Na,Be,As,2,2,2,3.6518,53.85,1.5085,NaBeAs
ABZ_PbClF_Na_Be_Sb,ABZ,PbClF,Na,Be,Sb,2,2,2,3.23611,48.9,0.5448,NaBeSb
ABZ_PbClF_Na_Mg_N,ABZ,PbClF,Na,Mg,N,2,2,2,4.10308,77.25,0.8059,NaMgN
ABZ_PbClF_Na_Mg_P,ABZ,PbClF,Na,Mg,P,2,2,2,3.40542,44.6,1.6164,NaMgP
ABZ_PbClF_Na_Mg_As,ABZ,PbClF,Na,Mg,As,2,2,2,3.18165,37.35,0.9878,NaMgAs
ABZ_PbClF_Na_Mg_Sb,ABZ,PbClF,Na,Mg,Sb,2,2,2,2.87685,36.55,1.1601,NaMgSb
ABZ_PbClF_Na_Ca_N,ABZ,PbClF,Na,Ca,N,2,2,2,4.20396,50.35,0.4659,NaCaN
ABZ_PbClF_Na_Ca_P,ABZ,PbClF,Na,Ca,P,2,2,2,3.62406,31.85,1.4912,NaCaP
ABZ_PbClF_Na_Ca_As,ABZ,PbClF,Na,Ca,As,2,2,2,3.43123,29.15,1.1994,NaCaAs
ABZ_PbClF_Na_Ca_Sb,ABZ,PbClF,Na,Ca,Sb,2,2,2,3.17387,23.35,1.4403,NaCaSb
ABZ_PbClF_Na_Sr_N,ABZ,PbClF,Na,Sr,N,2,2,2,3.9253,43.35,0,NaSrN
ABZ_PbClF_Na_Sr_P,ABZ,PbClF,Na,Sr,P,2,2,2,3.45186,29.05,0.2601,NaSrP
ABZ_PbClF_Na_Sr_As,ABZ,PbClF,Na,Sr,As,2,2,2,3.27313,27.85,0.1455,NaSrAs
ABZ_PbClF_Na_Sr_Sb,ABZ,PbClF,Na,Sr,Sb,2,2,2,3.02596,18.35,0.3701,NaSrSb
ABZ_PbClF_Na_Ba_N,ABZ,PbClF,Na,Ba,N,2,2,2,3.87326,31.8,0,NaBaN
ABZ_PbClF_Na_Ba_P,ABZ,PbClF,Na,Ba,P,2,2,2,3.49061,28.2,0.1179,NaBaP
ABZ_PbClF_Na_Ba_As,ABZ,PbClF,Na,Ba,As,2,2,2,3.32921,22.4,0,NaBaAs
ABZ_PbClF_Na_Ba_Sb,ABZ,PbClF,Na,Ba,Sb,2,2,2,3.11352,26.4,0.3009,NaBaSb
ABZ_PbClF_Na_Zn_N,ABZ,PbClF,Na,Zn,N,2,2,2,3.54471,84.8,0,NaZnN
ABZ_PbClF_Na_Zn_P,ABZ,PbClF,Na,Zn,P,2,2,2,3.03595,53.55,0.8772,NaZnP
ABZ_PbClF_Na_Zn_As,ABZ,PbClF,Na,Zn,As,2,2,2,2.8064,48.2,0.3782,NaZnAs
ABZ_PbClF_Na_Zn_Sb,ABZ,PbClF,Na,Zn,Sb,2,2,2,2.51803,38.55,0,NaZnSb
ABZ_PbClF_Na_Cd_N,ABZ,PbClF,Na,Cd,N,2,2,2,3.13027,77.45,0,NaCdN
ABZ_PbClF_Na_Cd_P,ABZ,PbClF,Na,Cd,P,2,2,2,2.80464,48.4,0.2594,NaCdP
ABZ_PbClF_Na_Cd_As,ABZ,PbClF,Na,Cd,As,2,2,2,2.63309,41.25,0,NaCdAs
ABZ_PbClF_Na_Cd_Sb,ABZ,PbClF,Na,Cd,Sb,2,2,2,2.4111,28.1,0.0891,NaCdSb
ABZ_PbClF_Na_Hg_N,ABZ,PbClF,Na,Hg,N,2,2,2,2.60235,66.9,0,NaHgN
ABZ_PbClF_Na_Hg_P,ABZ,PbClF,Na,Hg,P,2,2,2,2.38991,46.3,0.2762,NaHgP