Compound,type,st,a1,a2,a3,n1,n2,n3,Ecoh,BM,bandgap,formula
A3Z_Cu3Ti_Na_As_None,A3Z,Cu3Ti,Na,As,None,6,2,0,2.56091,21.15,0.0872,Na3As
A3Z_Cu3Ti_Na_Sb_None,A3Z,Cu3Ti,Na,Sb,None,6,2,0,2.46491,22.95,0.3795,Na3Sb
A3Z_Cu3Ti_K_N_None,A3Z,Cu3Ti,K,N,None,6,2,0,2.3989,11.15,0.004,K3N
A3Z_Cu3Ti_K_P_None,A3Z,Cu3Ti,K,P,None,6,2,0,2.32268,14.25,0.2074,K3P
A3Z_Cu3Ti_K_As_None,A3Z,Cu3Ti,K,As,None,6,2,0,2.26559,13.7,0.3929,K3As
A3Z_Cu3Ti_K_Sb_None,A3Z,Cu3Ti,K,Sb,None,6,2,0,2.23402,11.4,0.555,K3Sb
A3Z_Cu3Ti_Rb_N_None,A3Z,Cu3Ti,Rb,N,None,6,2,0,2.27477,9.35,0.0012,Rb3N
A3Z_Cu3Ti_Rb_P_None,A3Z,Cu3Ti,Rb,P,None,6,2,0,2.16779,11,0.1161,Rb3P
A3Z_Cu3Ti_Rb_As_None,A3Z,Cu3Ti,Rb,As,None,6,2,0,2.10936,10.4,0.1287,Rb3As
A3Z_Cu3Ti_Rb_Sb_None,A3Z,Cu3Ti,Rb,Sb,None,6,2,0,2.09693,11.1,0.4608,Rb3Sb
A3Z_Cu3Ti_Cs_N_None,A3Z,Cu3Ti,Cs,N,None,6,2,0,2.25777,6.85,0.3432,Cs3N
A3Z_Cu3Ti_Cs_P_None,A3Z,Cu3Ti,Cs,P,None,6,2,0,2.12743,9.55,0.203,Cs3P
A3Z_Cu3Ti_Cs_As_None,A3Z,Cu3Ti,Cs,As,None,6,2,0,2.06529,9.25,0.1672,Cs3As
A3Z_Cu3Ti_Cs_Sb_None,A3Z,Cu3Ti,Cs,Sb,None,6,2,0,2.0578,12.15,0.7338,Cs3Sb
A3Z_Re3N_Li_N_None,A3Z,Re3N,Li,N,None,3,1,0,3.31242,37.7,0.3752,Li3N
A3Z_Re3N_Li_P_None,A3Z,Re3N,Li,P,None,3,1,0,2.94639,32.2,3.3703,Li3P
A3Z_Re3N_Li_As_None,A3Z,Re3N,Li,As,None,3,1,0,2.8295,32.85,3.1181,Li3As
A3Z_Re3N_Li_Sb_None,A3Z,Re3N,Li,Sb,None,3,1,0,2.65323,31.9,2.6156,Li3Sb
A3Z_Re3N_Na_N_None,A3Z,Re3N,Na,N,None,3,1,0,2.51942,21.15,0,Na3N
A3Z_Re3N_Na_P_None,A3Z,Re3N,Na,P,None,3,1,0,2.24167,19.8,1.303,Na3P
A3Z_Re3N_Na_As_None,A3Z,Re3N,Na,As,None,3,1,0,2.19188,17.85,1.1456,Na3As
A3Z_Re3N_Na_Sb_None,A3Z,Re3N,Na,Sb,None,3,1,0,2.13181,26.35,1.0722,Na3Sb
A3Z_Re3N_K_N_None,A3Z,Re3N,K,N,None,3,1,0,2.19311,6.9,0,K3N
A3Z_Re3N_K_P_None,A3Z,Re3N,K,P,None,3,1,0,2.01033,10.1,0,K3P
A3Z_Re3N_K_As_None,A3Z,Re3N,K,As,None,3,1,0,1.93979,8.15,0,K3As
A3Z_Re3N_K_Sb_None,A3Z,Re3N,K,Sb,None,3,1,0,1.85918,5,0.3032,K3Sb
A3Z_Re3N_Rb_N_None,A3Z,Re3N,Rb,N,None,3,1,0,2.06272,10.55,0,Rb3N
A3Z_Re3N_Rb_P_None,A3Z,Re3N,Rb,P,None,3,1,0,1.90301,5.6,0,Rb3P
A3Z_Re3N_Rb_As_None,A3Z,Re3N,Rb,As,None,3,1,0,1.83466,5.7,0,Rb3As
A3Z_Re3N_Rb_Sb_None,A3Z,Re3N,Rb,Sb,None,3,1,0,1.75808,12.55,0,Rb3Sb
A3Z_Re3N_Cs_N_None,A3Z,Re3N,Cs,N,None,3,1,0,2.03192,18.95,0,Cs3N
A3Z_Re3N_Cs_P_None,A3Z,Re3N,Cs,P,None,3,1,0,1.87058,4.5,0,Cs3P
A3Z_Re3N_Cs_As_None,A3Z,Re3N,Cs,As,None,3,1,0,1.8031,7,0,Cs3As
A3Z_Re3N_Cs_Sb_None,A3Z,Re3N,Cs,Sb,None,3,1,0,1.72785,7.65,0,Cs3Sb
BX2_TiO2_Be_F_None,BX2,TiO2,Be,F,None,2,4,0,5.47129,145.25,8.7837,BeF2
BX2_TiO2_Be_Cl_None,BX2,TiO2,Be,Cl,None,2,4,0,3.62327,20.8,5.6907,BeCl2
BX2_TiO2_Be_Br_None,BX2,TiO2,Be,Br,None,2,4,0,3.10574,17.5,5.0175,BeBr2
BX2_TiO2_Be_I_None,BX2,TiO2,Be,I,None,2,4,0,2.59154,11.55,4.4479,BeI2
BX2_TiO2_Mg_F_None,BX2,TiO2,Mg,F,None,2,4,0,5.33518,100.25,6.9323,MgF2
BX2_TiO2_Mg_Cl_None,BX2,TiO2,Mg,Cl,None,2,4,0,3.5988,52.15,4.5118,MgCl2
BX2_TiO2_Mg_Br_None,BX2,TiO2,Mg,Br,None,2,4,0,3.07973,40.65,3.072,MgBr2
BX2_TiO2_Mg_I_None,BX2,TiO2,Mg,I,None,2,4,0,2.54205,24.25,2.1037,MgI2
BX2_TiO2_Ca_F_None,BX2,TiO2,Ca,F,None,2,4,0,5.79835,65.1,6.8173,CaF2
BX2_TiO2_Ca_Cl_None,BX2,TiO2,Ca,Cl,None,2,4,0,4.30533,38.1,5.3205,CaCl2
BX2_TiO2_Ca_Br_None,BX2,TiO2,Ca,Br,None,2,4,0,3.8144,27.25,4.4357,CaBr2
BX2_TiO2_Ca_I_None,BX2,TiO2,Ca,I,None,2,4,0,3.28572,27.2,3.3444,CaI2
BX2_TiO2_Sr_F_None,BX2,TiO2,Sr,F,None,2,4,0,5.66175,55.2,6.3528,SrF2
BX2_TiO2_Sr_Cl_None,BX2,TiO2,Sr,Cl,None,2,4,0,4.27457,27.7,5.296,SrCl2
BX2_TiO2_Sr_Br_None,BX2,TiO2,Sr,Br,None,2,4,0,3.80349,21.4,4.3901,SrBr2
BX2_TiO2_Sr_I_None,BX2,TiO2,Sr,I,None,2,4,0,3.28871,16.55,3.8083,SrI2
BX2_TiO2_Ba_F_None,BX2,TiO2,Ba,F,None,2,4,0,5.66292,44.4,6.0776,BaF2
BX2_TiO2_Ba_Cl_None,BX2,TiO2,Ba,Cl,None,2,4,0,4.38741,30.35,5.2281,BaCl2
BX2_TiO2_Ba_Br_None,BX2,TiO2,Ba,Br,None,2,4,0,3.94331,22.7,4.5026,BaBr2
BX2_TiO2_Zn_F_None,BX2,TiO2,Zn,F,None,2,4,0,3.92379,109.45,3.4836,ZnF2
BX2_TiO2_Zn_Cl_None,BX2,TiO2,Zn,Cl,None,2,4,0,2.64445,52.9,2.9094,ZnCl2
BX2_TiO2_Zn_Br_None,BX2,TiO2,Zn,Br,None,2,4,0,2.23922,41.85,1.9736,ZnBr2
BX2_TiO2_Zn_I_None,BX2,TiO2,Zn,I,None,2,4,0,1.77346,13.05,3.0135,ZnI2
BX2_TiO2_Cd_F_None,BX2,TiO2,Cd,F,None,2,4,0,3.6762,74.6,2.9167,CdF2
BX2_TiO2_Cd_Cl_None,BX2,TiO2,Cd,Cl,None,2,4,0,2.55644,44.8,2.3625,CdCl2
BX2_TiO2_Cd_Br_None,BX2,TiO2,Cd,Br,None,2,4,0,2.1882,46.05,1.4613,CdBr2
BX2_TiO2_Cd_I_None,BX2,TiO2,Cd,I,None,2,4,0,1.80892,25.4,1.0091,CdI2
BX2_TiO2_Hg_F_None,BX2,TiO2,Hg,F,None,2,4,0,2.70058,74.3,0.5007,HgF2
BX2_TiO2_Hg_Cl_None,BX2,TiO2,Hg,Cl,None,2,4,0,1.88832,43.45,2.6003,HgCl2
BX2_TiO2_Hg_Br_None,BX2,TiO2,Hg,Br,None,2,4,0,1.56003,20.7,3.096,HgBr2
BX2_TiO2_Hg_I_None,BX2,TiO2,Hg,I,None,2,4,0,1.32034,12.55,2.1611,HgI2
BX2_ZrBeSi_Be_F_None,BX2,ZrBeSi,Be,F,None,2,4,0,4.83708,140.05,5.5449,BeF2
BX2_ZrBeSi_Be_Cl_None,BX2,ZrBeSi,Be,Cl,None,2,4,0,2.97414,60.05,2.0707,BeCl2
BX2_ZrBeSi_Be_Br_None,BX2,ZrBeSi,Be,Br,None,2,4,0,1.96681,22.55,0.2081,BeBr2
BX2_ZrBeSi_Be_I_None,BX2,ZrBeSi,Be,I,None,2,4,0,1.6098,24.4,0,BeI2
BX2_ZrBeSi_Mg_F_None,BX2,ZrBeSi,Mg,F,None,2,4,0,4.93313,102.05,5.2988,MgF2
BX2_ZrBeSi_Mg_Cl_None,BX2,ZrBeSi,Mg,Cl,None,2,4,0,3.15669,41.8,2.7259,MgCl2
BX2_ZrBeSi_Mg_Br_None,BX2,ZrBeSi,Mg,Br,None,2,4,0,2.64249,40.35,1.4079,MgBr2
BX2_ZrBeSi_Mg_I_None,BX2,ZrBeSi,Mg,I,None,2,4,0,1.8659,28,0.2535,MgI2
BX2_ZrBeSi_Ca_F_None,BX2,ZrBeSi,Ca,F,None,2,4,0,5.63223,86.65,5.9448,CaF2
BX2_ZrBeSi_Ca_Cl_None,BX2,ZrBeSi,Ca,Cl,None,2,4,0,4.04117,39.95,3.7879,CaCl2
BX2_ZrBeSi_Ca_Br_None,BX2,ZrBeSi,Ca,Br,None,2,4,0,3.53488,33.8,3.0215,CaBr2
BX2_ZrBeSi_Ca_I_None,BX2,ZrBeSi,Ca,I,None,2,4,0,2.97429,19.2,2.4339,CaI2
BX2_ZrBeSi_Sr_F_None,BX2,ZrBeSi,Sr,F,None,2,4,0,5.57845,70.65,5.9281,SrF2
BX2_ZrBeSi_Sr_Cl_None,BX2,ZrBeSi,Sr,Cl,None,2,4,0,4.11867,42.2,3.8185,SrCl2
BX2_ZrBeSi_Sr_Br_None,BX2,ZrBeSi,Sr,Br,None,2,4,0,3.62956,38.25,2.8606,SrBr2
BX2_ZrBeSi_Sr_I_None,BX2,ZrBeSi,Sr,I,None,2,4,0,3.07566,22.2,2.1531,SrI2
BX2_ZrBeSi_Ba_F_None,BX2,ZrBeSi,Ba,F,None,2,4,0,5.63328,63.8,5.9725,BaF2
BX2_ZrBeSi_Ba_Cl_None,BX2,ZrBeSi,Ba,Cl,None,2,4,0,4.32948,39.45,3.8407,BaCl2
BX2_ZrBeSi_Ba_Br_None,BX2,ZrBeSi,Ba,Br,None,2,4,0,3.8718,31.4,2.9784,BaBr2
BX2_ZrBeSi_Ba_I_None,BX2,ZrBeSi,Ba,I,None,2,4,0,3.35412,30.35,2.1642,BaI2
BX2_ZrBeSi_Zn_F_None,BX2,ZrBeSi,Zn,F,None,2,4,0,3.57414,116.15,2.7165,ZnF2
BX2_ZrBeSi_Zn_Cl_None,BX2,ZrBeSi,Zn,Cl,None,2,4,0,1.88906,22.45,0.6208,ZnCl2
BX2_ZrBeSi_Zn_Br_None,BX2,ZrBeSi,Zn,Br,None,2,4,0,1.63286,66.25,0,ZnBr2
BX2_ZrBeSi_Zn_I_None,BX2,ZrBeSi,Zn,I,None,2,4,0,1.34193,29.2,0,ZnI2
BX2_ZrBeSi_Cd_F_None,BX2,ZrBeSi,Cd,F,None,2,4,0,3.48327,95.7,2.201,CdF2
BX2_ZrBeSi_Cd_Cl_None,BX2,ZrBeSi,Cd,Cl,None,2,4,0,2.20232,51.55,0.8556,CdCl2
BX2_ZrBeSi_Cd_Br_None,BX2,ZrBeSi,Cd,Br,None,2,4,0,1.66098,48.55,0.5057,CdBr2
BX2_ZrBeSi_Cd_I_None,BX2,ZrBeSi,Cd,I,None,2,4,0,1.40086,25.6,0,CdI2
BX2_ZrBeSi_Hg_F_None,BX2,ZrBeSi,Hg,F,None,2,4,0,2.56013,100.2,0.6505,HgF2
BX2_ZrBeSi_Hg_Cl_None,BX2,ZrBeSi,Hg,Cl,None,2,4,0,1.50446,37.25,0,HgCl2
BX2_ZrBeSi_Hg_Br_None,BX2,ZrBeSi,Hg,Br,None,2,4,0,1.32047,28.65,0,HgBr2
BX2_ZrBeSi_Hg_I_None,BX2,ZrBeSi,Hg,I,None,2,4,0,1.13527,18.5,0,HgI2
BX2_ZrH2_Be_F_None,BX2,ZrH2,Be,F,None,2,4,0,4.8651,157.85,6.2152,BeF2
BX2_ZrH2_Be_Cl_None,BX2,ZrH2,Be,Cl,None,2,4,0,2.82071,77.45,1.8973,BeCl2
BX2_ZrH2_Be_Br_None,BX2,ZrH2,Be,Br,None,2,4,0,2.29577,51.4,0.2633,BeBr2
BX2_ZrH2_Be_I_None,BX2,ZrH2,Be,I,None,2,4,0,1.72559,35,0.316,BeI2
BX2_ZrH2_Mg_Cl_None,BX2,ZrH2,Mg,Cl,None,2,4,0,3.3076,48.9,3.2659,MgCl2
BX2_ZrH2_Mg_Br_None,BX2,ZrH2,Mg,Br,None,2,4,0,2.76883,40.25,1.7268,MgBr2
BX2_ZrH2_Mg_I_None,BX2,ZrH2,Mg,I,None,2,4,0,2.17861,24.4,0.6175,MgI2
BX2_ZrH2_Ca_F_None,BX2,ZrH2,Ca,F,None,2,4,0,5.83872,77.9,7.197,CaF2
BX2_ZrH2_Ca_Cl_None,BX2,ZrH2,Ca,Cl,None,2,4,0,4.2529,41.8,4.887,CaCl2
BX2_ZrH2_Ca_Br_None,BX2,ZrH2,Ca,Br,None,2,4,0,3.73899,33.35,3.8642,CaBr2
BX2_ZrH2_Ca_I_None,BX2,ZrH2,Ca,I,None,2,4,0,3.16597,22.15,2.56,CaI2
BX2_ZrH2_Sr_F_None,BX2,ZrH2,Sr,F,None,2,4,0,5.74858,66.8,6.825,SrF2
BX2_ZrH2_Sr_Cl_None,BX2,ZrH2,Sr,Cl,None,2,4,0,4.30037,42.55,5.2536,SrCl2
BX2_ZrH2_Sr_Br_None,BX2,ZrH2,Sr,Br,None,2,4,0,3.80828,21.05,4.137,SrBr2
BX2_ZrH2_Sr_I_None,BX2,ZrH2,Sr,I,None,2,4,0,3.25879,24.6,3.1525,SrI2
BX2_ZrH2_Ba_F_None,BX2,ZrH2,Ba,F,None,2,4,0,5.76977,53.15,6.7476,BaF2
BX2_ZrH2_Ba_Cl_None,BX2,ZrH2,Ba,Cl,None,2,4,0,4.46529,27.6,5.4604,BaCl2
BX2_ZrH2_Ba_Br_None,BX2,ZrH2,Ba,Br,None,2,4,0,4.006,27.55,4.5275,BaBr2
BX2_ZrH2_Ba_I_None,BX2,ZrH2,Ba,I,None,2,4,0,3.49325,26.65,3.5623,BaI2
BX2_ZrH2_Zn_F_None,BX2,ZrH2,Zn,F,None,2,4,0,3.78715,128.15,3.4034,ZnF2
BX2_ZrH2_Zn_Cl_None,BX2,ZrH2,Zn,Cl,None,2,4,0,2.24787,67.2,0.9656,ZnCl2
BX2_ZrH2_Zn_Br_None,BX2,ZrH2,Zn,Br,None,2,4,0,1.79971,53.95,0.328,ZnBr2
BX2_ZrH2_Zn_I_None,BX2,ZrH2,Zn,I,None,2,4,0,1.31218,39,0.1714,ZnI2
BX2_ZrH2_Cd_F_None,BX2,ZrH2,Cd,F,None,2,4,0,3.68395,95.05,2.9992,CdF2
BX2_ZrH2_Cd_Cl_None,BX2,ZrH2,Cd,Cl,None,2,4,0,2.36581,61.85,1.4803,CdCl2
BX2_ZrH2_Cd_Br_None,BX2,ZrH2,Cd,Br,None,2,4,0,1.94996,68.2,0.2426,CdBr2
BX2_ZrH2_Cd_I_None,BX2,ZrH2,Cd,I,None,2,4,0,1.47958,35.85,0.2668,CdI2
BX2_ZrH2_Hg_F_None,BX2,ZrH2,Hg,F,None,2,4,0,2.71129,87.4,0.949,HgF2
BX2_ZrH2_Hg_Cl_None,BX2,ZrH2,Hg,Cl,None,2,4,0,1.64769,39.5,0,HgCl2
BX2_ZrH2_Hg_Br_None,BX2,ZrH2,Hg,Br,None,2,4,0,1.32271,34.1,0.0042,HgBr2
BX2_ZrH2_Hg_I_None,BX2,ZrH2,Hg,I,None,2,4,0,1.03007,25.85,2.7226,HgI2
BX2_ZrO2_Be_F_None,BX2,ZrO2,Be,F,None,2,4,0,5.6698,94.95,8.4393,BeF2
BX2_ZrO2_Be_Cl_None,BX2,ZrO2,Be,Cl,None,2,4,0,3.89102,48.15,5.5093,BeCl2
BX2_ZrO2_Be_Br_None,BX2,ZrO2,Be,Br,None,2,4,0,3.35633,36.4,4.4169,BeBr2
BX2_ZrO2_Be_I_None,BX2,ZrO2,Be,I,None,2,4,0,2.82107,23.75,3.2596,BeI2
BX2_ZrO2_Mg_F_None,BX2,ZrO2,Mg,F,None,2,4,0,5.22544,95.6,6.6693,MgF2
BX2_ZrO2_Mg_Cl_None,BX2,ZrO2,Mg,Cl,None,2,4,0,3.56123,38.6,5.0593,MgCl2
BX2_ZrO2_Mg_Br_None,BX2,ZrO2,Mg,Br,None,2,4,0,3.08034,26.35,3.9776,MgBr2
BX2_ZrO2_Mg_I_None,BX2,ZrO2,Mg,I,None,2,4,0,2.58256,28.75,3.5179,MgI2
BX2_ZrO2_Ca_F_None,BX2,ZrO2,Ca,F,None,2,4,0,5.83872,80.7,7.1926,CaF2
BX2_ZrO2_Ca_Cl_None,BX2,ZrO2,Ca,Cl,None,2,4,0,4.25224,43.25,4.9031,CaCl2
BX2_ZrO2_Ca_Br_None,BX2,ZrO2,Ca,Br,None,2,4,0,3.74185,61.9,3.9361,CaBr2
BX2_ZrO2_Ca_I_None,BX2,ZrO2,Ca,I,None,2,4,0,3.19511,19.9,3.4104,CaI2
BX2_ZrO2_Sr_F_None,BX2,ZrO2,Sr,F,None,2,4,0,5.74855,68.1,6.8253,SrF2
BX2_ZrO2_Sr_Cl_None,BX2,ZrO2,Sr,Cl,None,2,4,0,4.29944,27.5,5.2476,SrCl2
BX2_ZrO2_Sr_Br_None,BX2,ZrO2,Sr,Br,None,2,4,0,3.80878,44.55,4.2432,SrBr2
BX2_ZrO2_Sr_I_None,BX2,ZrO2,Sr,I,None,2,4,0,3.25849,25.45,3.2902,SrI2
BX2_ZrO2_Ba_F_None,BX2,ZrO2,Ba,F,None,2,4,0,5.76976,53.2,6.7429,BaF2
BX2_ZrO2_Ba_Cl_None,BX2,ZrO2,Ba,Cl,None,2,4,0,4.46496,42.3,5.4784,BaCl2
BX2_ZrO2_Ba_Br_None,BX2,ZrO2,Ba,Br,None,2,4,0,4.006,36.35,4.5071,BaBr2
BX2_ZrO2_Ba_I_None,BX2,ZrO2,Ba,I,None,2,4,0,3.49281,19.45,3.5508,BaI2
BX2_ZrO2_Zn_F_None,BX2,ZrO2,Zn,F,None,2,4,0,3.66914,73.95,3.7032,ZnF2
BX2_ZrO2_Zn_Cl_None,BX2,ZrO2,Zn,Cl,None,2,4,0,2.75995,39.95,3.9058,ZnCl2
BX2_ZrO2_Zn_Br_None,BX2,ZrO2,Zn,Br,None,2,4,0,2.38414,37.75,3.1104,ZnBr2
BX2_ZrO2_Zn_I_None,BX2,ZrO2,Zn,I,None,2,4,0,2.00336,18.55,2.6407,ZnI2
BX2_ZrO2_Cd_F_None,BX2,ZrO2,Cd,F,None,2,4,0,3.68365,93.8,3.0063,CdF2
BX2_ZrO2_Cd_Cl_None,BX2,ZrO2,Cd,Cl,None,2,4,0,2.54155,31.2,3.1857,CdCl2
BX2_ZrO2_Cd_Br_None,BX2,ZrO2,Cd,Br,None,2,4,0,2.22159,38,2.6509,CdBr2
BX2_ZrO2_Cd_I_None,BX2,ZrO2,Cd,I,None,2,4,0,1.54627,21.55,0.0147,CdI2
BX2_ZrO2_Hg_F_None,BX2,ZrO2,Hg,F,None,2,4,0,2.711,86.15,0.955,HgF2
BX2_ZrO2_Hg_Cl_None,BX2,ZrO2,Hg,Cl,None,2,4,0,1.8604,30.45,2.0102,HgCl2
BX2_ZrO2_Hg_Br_None,BX2,ZrO2,Hg,Br,None,2,4,0,1.62143,45.2,1.4845,HgBr2
BX2_ZrO2_Hg_I_None,BX2,ZrO2,Hg,I,None,2,4,0,1.11399,24.9,0.7782,HgI2
B3Z2_La2O3_Be_N_None,B3Z2,La2O3,Be,N,None,3,2,0,4.7252,103.8,1.1394,Be3N2
B3Z2_La2O3_Be_P_None,B3Z2,La2O3,Be,P,None,3,2,0,4.53596,104.6,2.7992,Be3P2
B3Z2_La2O3_Be_As_None,B3Z2,La2O3,Be,As,None,3,2,0,4.07697,94.65,2.744,Be3As2
B3Z2_La2O3_Be_Sb_None,B3Z2,La2O3,Be,Sb,None,3,2,0,3.54414,81.6,1.555,Be3Sb2
B3Z2_La2O3_Mg_N_None,B3Z2,La2O3,Mg,N,None,3,2,0,3.56667,67.9,2.5974,Mg3N2
B3Z2_La2O3_Mg_P_None,B3Z2,La2O3,Mg,P,None,3,2,0,3.76149,67.2,1.7685,Mg3P2
B3Z2_La2O3_Mg_As_None,B3Z2,La2O3,Mg,As,None,3,2,0,3.43824,58.2,0.9085,Mg3As2
B3Z2_La2O3_Mg_Sb_None,B3Z2,La2O3,Mg,Sb,None,3,2,0,2.9814,53.95,1.0352,Mg3Sb2
B3Z2_La2O3_Ca_N_None,B3Z2,La2O3,Ca,N,None,3,2,0,5.25362,67.7,0.0643,Ca3N2
B3Z2_La2O3_Ca_P_None,B3Z2,La2O3,Ca,P,None,3,2,0,4.47146,47.45,2.0842,Ca3P2
B3Z2_La2O3_Ca_As_None,B3Z2,La2O3,Ca,As,None,3,2,0,4.21057,42.15,1.4493,Ca3As2
B3Z2_La2O3_Ca_Sb_None,B3Z2,La2O3,Ca,Sb,None,3,2,0,3.84048,45.1,1.456,Ca3Sb2
B3Z2_La2O3_Sr_N_None,B3Z2,La2O3,Sr,N,None,3,2,0,4.84062,49.15,0,Sr3N2
B3Z2_La2O3_Sr_P_None,B3Z2,La2O3,Sr,P,None,3,2,0,4.21478,38.4,1.6365,Sr3P2
B3Z2_La2O3_Sr_As_None,B3Z2,La2O3,Sr,As,None,3,2,0,3.98759,36.1,1.1064,Sr3As2
B3Z2_La2O3_Sr_Sb_None,B3Z2,La2O3,Sr,Sb,None,3,2,0,3.68503,50.6,0.8258,Sr3Sb2
B3Z2_La2O3_Ba_N_None,B3Z2,La2O3,Ba,N,None,3,2,0,4.88404,42.35,0,Ba3N2
B3Z2_La2O3_Ba_P_None,B3Z2,La2O3,Ba,P,None,3,2,0,4.29857,31.75,1.4801,Ba3P2
B3Z2_La2O3_Ba_As_None,B3Z2,La2O3,Ba,As,None,3,2,0,4.10155,34.05,1.2793,Ba3As2
B3Z2_La2O3_Ba_Sb_None,B3Z2,La2O3,Ba,Sb,None,3,2,0,3.8592,29.45,0.6549,Ba3Sb2
B3Z2_La2O3_Zn_N_None,B3Z2,La2O3,Zn,N,None,3,2,0,3.75091,148.55,0,Zn3N2
B3Z2_La2O3_Zn_P_None,B3Z2,La2O3,Zn,P,None,3,2,0,2.42891,33,2.3392,Zn3P2
B3Z2_La2O3_Zn_As_None,B3Z2,La2O3,Zn,As,None,3,2,0,2.26147,55.1,0.5141,Zn3As2
B3Z2_La2O3_Cd_N_None,B3Z2,La2O3,Cd,N,None,3,2,0,3.14049,103.85,0,Cd3N2
B3Z2_La2O3_Cd_P_None,B3Z2,La2O3,Cd,P,None,3,2,0,2.25095,48.25,0.3673,Cd3P2
B3Z2_La2O3_Cd_As_None,B3Z2,La2O3,Cd,As,None,3,2,0,2.37677,53.8,0,Cd3As2
B3Z2_La2O3_Cd_Sb_None,B3Z2,La2O3,Cd,Sb,None,3,2,0,1.92343,42.2,0,Cd3Sb2
B3Z2_La2O3_Hg_N_None,B3Z2,La2O3,Hg,N,None,3,2,0,2.14689,91.6,0,Hg3N2
B3Z2_La2O3_Hg_P_None,B3Z2,La2O3,Hg,P,None,3,2,0,1.90731,59.2,0,Hg3P2
B3Z2_La2O3_Hg_As_None,B3Z2,La2O3,Hg,As,None,3,2,0,1.75941,40.55,0,Hg3As2
B3Z2_La2O3_Hg_Sb_None,B3Z2,La2O3,Hg,Sb,None,3,2,0,1.64603,37.4,0,Hg3Sb2
B3Z2_Ni3S2_Be_N_None,B3Z2,Ni3S2,Be,N,None,3,2,0,6.3994,205,4.5338,Be3N2
B3Z2_Ni3S2_Be_P_None,B3Z2,Ni3S2,Be,P,None,3,2,0,4.58129,101.35,0,Be3P2
B3Z2_Ni3S2_Be_As_None,B3Z2,Ni3S2,Be,As,None,3,2,0,4.14621,89.6,0,Be3As2
B3Z2_Ni3S2_Be_Sb_None,B3Z2,Ni3S2,Be,Sb,None,3,2,0,3.62869,88.4,0.7161,Be3Sb2
B3Z2_Ni3S2_Mg_N_None,B3Z2,Ni3S2,Mg,N,None,3,2,0,4.83913,105.95,1.1426,Mg3N2
B3Z2_Ni3S2_Mg_P_None,B3Z2,Ni3S2,Mg,P,None,3,2,0,3.65872,58.15,1.8884,Mg3P2
B3Z2_Ni3S2_Mg_As_None,B3Z2,Ni3S2,Mg,As,None,3,2,0,3.34588,48.3,1.1864,Mg3As2
B3Z2_Ni3S2_Mg_Sb_None,B3Z2,Ni3S2,Mg,Sb,None,3,2,0,2.48389,30.1,2.8366,Mg3Sb2
B3Z2_Ni3S2_Ca_N_None,B3Z2,Ni3S2,Ca,N,None,3,2,0,5.14531,69.05,0.8033,Ca3N2
B3Z2_Ni3S2_Ca_P_None,B3Z2,Ni3S2,Ca,P,None,3,2,0,3.56746,22.65,2.176,Ca3P2
B3Z2_Ni3S2_Ca_As_None,B3Z2,Ni3S2,Ca,As,None,3,2,0,3.29867,26.4,2.1771,Ca3As2
B3Z2_Ni3S2_Sr_N_None,B3Z2,Ni3S2,Sr,N,None,3,2,0,4.70985,53.1,0.2744,Sr3N2
B3Z2_Ni3S2_Sr_P_None,B3Z2,Ni3S2,Sr,P,None,3,2,0,3.40625,18.45,2.155,Sr3P2
B3Z2_Ni3S2_Sr_As_None,B3Z2,Ni3S2,Sr,As,None,3,2,0,3.13935,19.5,2.2288,Sr3As2
B3Z2_Ni3S2_Sr_Sb_None,B3Z2,Ni3S2,Sr,Sb,None,3,2,0,2.8467,24.4,1.3108,Sr3Sb2
B3Z2_Ni3S2_Ba_N_None,B3Z2,Ni3S2,Ba,N,None,3,2,0,4.71123,45.65,0.294,Ba3N2
B3Z2_Ni3S2_Ba_P_None,B3Z2,Ni3S2,Ba,P,None,3,2,0,3.42046,8.85,0.0117,Ba3P2
B3Z2_Ni3S2_Ba_Sb_None,B3Z2,Ni3S2,Ba,Sb,None,3,2,0,3.71966,25.4,0.975,Ba3Sb2
B3Z2_Ni3S2_Zn_N_None,B3Z2,Ni3S2,Zn,N,None,3,2,0,3.74421,77.8,1.8104,Zn3N2
B3Z2_Ni3S2_Zn_P_None,B3Z2,Ni3S2,Zn,P,None,3,2,0,2.78908,54.75,4.1925,Zn3P2
B3Z2_Ni3S2_Zn_As_None,B3Z2,Ni3S2,Zn,As,None,3,2,0,2.47263,45.85,3.6124,Zn3As2
B3Z2_Ni3S2_Zn_Sb_None,B3Z2,Ni3S2,Zn,Sb,None,3,2,0,2.18097,51.15,2.5431,Zn3Sb2
B3Z2_Ni3S2_Cd_N_None,B3Z2,Ni3S2,Cd,N,None,3,2,0,3.53234,33.95,1.3813,Cd3N2
B3Z2_Ni3S2_Cd_P_None,B3Z2,Ni3S2,Cd,P,None,3,2,0,2.5407,50,4.4796,Cd3P2
B3Z2_Ni3S2_Cd_As_None,B3Z2,Ni3S2,Cd,As,None,3,2,0,2.31704,56.75,3.3421,Cd3As2
B3Z2_Ni3S2_Cd_Sb_None,B3Z2,Ni3S2,Cd,Sb,None,3,2,0,1.97333,20.8,2.1458,Cd3Sb2
B3Z2_Ni3S2_Hg_N_None,B3Z2,Ni3S2,Hg,N,None,3,2,0,3.36933,10.4,4.1776,Hg3N2
B3Z2_Ni3S2_Hg_P_None,B3Z2,Ni3S2,Hg,P,None,3,2,0,2.10047,41.6,3.8396,Hg3P2
B3Z2_Ni3S2_Hg_As_None,B3Z2,Ni3S2,Hg,As,None,3,2,0,1.86685,42.6,3.7843,Hg3As2
B3Z2_Ni3S2_Hg_Sb_None,B3Z2,Ni3S2,Hg,Sb,None,3,2,0,1.62828,26.1,2.9935,Hg3Sb2
B3Z2_Rh3P2_Be_N_None,B3Z2,Rh3P2,Be,N,None,3,2,0,6.24198,224.4,4.7607,Be3N2
B3Z2_Rh3P2_Be_P_None,B3Z2,Rh3P2,Be,P,None,3,2,0,4.44083,108.5,0.8415,Be3P2
B3Z2_Rh3P2_Be_As_None,B3Z2,Rh3P2,Be,As,None,3,2,0,3.46815,67.75,0,Be3As2
B3Z2_Rh3P2_Be_Sb_None,B3Z2,Rh3P2,Be,Sb,None,3,2,0,3.13413,75.1,0.3737,Be3Sb2
B3Z2_Rh3P2_Mg_N_None,B3Z2,Rh3P2,Mg,N,None,3,2,0,4.79021,126.5,1.0341,Mg3N2
B3Z2_Rh3P2_Mg_P_None,B3Z2,Rh3P2,Mg,P,None,3,2,0,3.66851,62.3,1.3987,Mg3P2
B3Z2_Rh3P2_Mg_As_None,B3Z2,Rh3P2,Mg,As,None,3,2,0,3.35546,50.9,0.7157,Mg3As2
B3Z2_Rh3P2_Mg_Sb_None,B3Z2,Rh3P2,Mg,Sb,None,3,2,0,2.92329,83,0.4885,Mg3Sb2
B3Z2_Rh3P2_Ca_N_None,B3Z2,Rh3P2,Ca,N,None,3,2,0,5.12557,76.3,0.7263,Ca3N2
B3Z2_Rh3P2_Ca_P_None,B3Z2,Rh3P2,Ca,P,None,3,2,0,4.41404,48.6,0.8439,Ca3P2
B3Z2_Rh3P2_Ca_As_None,B3Z2,Rh3P2,Ca,As,None,3,2,0,4.15733,40.5,0.7512,Ca3As2
B3Z2_Rh3P2_Ca_Sb_None,B3Z2,Rh3P2,Ca,Sb,None,3,2,0,3.79645,38.65,0.8158,Ca3Sb2
B3Z2_Rh3P2_Sr_N_None,B3Z2,Rh3P2,Sr,N,None,3,2,0,4.6789,60.5,0.2462,Sr3N2
B3Z2_Rh3P2_Sr_P_None,B3Z2,Rh3P2,Sr,P,None,3,2,0,4.1665,39.7,0.5859,Sr3P2
B3Z2_Rh3P2_Sr_As_None,B3Z2,Rh3P2,Sr,As,None,3,2,0,3.94236,36.35,0.3877,Sr3As2
B3Z2_Rh3P2_Sr_Sb_None,B3Z2,Rh3P2,Sr,Sb,None,3,2,0,3.64337,27.75,0.5955,Sr3Sb2
B3Z2_Rh3P2_Ba_N_None,B3Z2,Rh3P2,Ba,N,None,3,2,0,4.69601,50.05,0,Ba3N2
B3Z2_Rh3P2_Ba_P_None,B3Z2,Rh3P2,Ba,P,None,3,2,0,4.27841,35,0.1233,Ba3P2
B3Z2_Rh3P2_Ba_As_None,B3Z2,Rh3P2,Ba,As,None,3,2,0,4.08036,29.35,0.12,Ba3As2
B3Z2_Rh3P2_Ba_Sb_None,B3Z2,Rh3P2,Ba,Sb,None,3,2,0,3.82663,27,0.1721,Ba3Sb2
B3Z2_Rh3P2_Zn_P_None,B3Z2,Rh3P2,Zn,P,None,3,2,0,2.83979,85.85,0.3296,Zn3P2
B3Z2_Rh3P2_Zn_As_None,B3Z2,Rh3P2,Zn,As,None,3,2,0,2.55553,66.55,0,Zn3As2
B3Z2_Rh3P2_Zn_Sb_None,B3Z2,Rh3P2,Zn,Sb,None,3,2,0,2.25547,56,0,Zn3Sb2
B3Z2_Rh3P2_Cd_N_None,B3Z2,Rh3P2,Cd,N,None,3,2,0,2.45176,76.35,4.011,Cd3N2
B3Z2_Rh3P2_Cd_P_None,B3Z2,Rh3P2,Cd,P,None,3,2,0,2.53689,58.55,0,Cd3P2
B3Z2_Rh3P2_Cd_As_None,B3Z2,Rh3P2,Cd,As,None,3,2,0,2.33188,54.45,0,Cd3As2
B3Z2_Rh3P2_Cd_Sb_None,B3Z2,Rh3P2,Cd,Sb,None,3,2,0,2.08923,55.65,0,Cd3Sb2
B3Z2_Rh3P2_Hg_N_None,B3Z2,Rh3P2,Hg,N,None,3,2,0,2.10252,80.75,0,Hg3N2
B3Z2_Rh3P2_Hg_P_None,B3Z2,Rh3P2,Hg,P,None,3,2,0,1.87131,58.15,0.0603,Hg3P2
B3Z2_Rh3P2_Hg_As_None,B3Z2,Rh3P2,Hg,As,None,3,2,0,1.74556,53.35,0.1313,Hg3As2
B3Z2_Rh3P2_Hg_Sb_None,B3Z2,Rh3P2,Hg,Sb,None,3,2,0,1.63114,48.6,0.2613,Hg3Sb2
B3Z2_Zn3P2_Be_N_None,B3Z2,Zn3P2,Be,N,None,6,4,0,6.42554,210.6,2.4732,Be3N2
B3Z2_Zn3P2_Be_P_None,B3Z2,Zn3P2,Be,P,None,6,4,0,4.50664,80.25,0.2534,Be3P2
B3Z2_Zn3P2_Be_As_None,B3Z2,Zn3P2,Be,As,None,6,4,0,4.04001,83.45,0.1173,Be3As2
B3Z2_Zn3P2_Be_Sb_None,B3Z2,Zn3P2,Be,Sb,None,6,4,0,3.47743,90.4,0,Be3Sb2
B3Z2_Zn3P2_Mg_N_None,B3Z2,Zn3P2,Mg,N,None,6,4,0,4.67057,106.1,1.1468,Mg3N2
B3Z2_Zn3P2_Mg_P_None,B3Z2,Zn3P2,Mg,P,None,6,4,0,3.606,56.25,1.237,Mg3P2
B3Z2_Zn3P2_Mg_As_None,B3Z2,Zn3P2,Mg,As,None,6,4,0,3.29447,48.8,0.6827,Mg3As2
B3Z2_Zn3P2_Mg_Sb_None,B3Z2,Zn3P2,Mg,Sb,None,6,4,0,2.87103,18.35,0.3784,Mg3Sb2
B3Z2_Zn3P2_Ca_N_None,B3Z2,Zn3P2,Ca,N,None,6,4,0,4.93907,65.4,1.2267,Ca3N2
B3Z2_Zn3P2_Ca_P_None,B3Z2,Zn3P2,Ca,P,None,6,4,0,4.23888,41.9,1.147,Ca3P2
B3Z2_Zn3P2_Ca_As_None,B3Z2,Zn3P2,Ca,As,None,6,4,0,3.98973,39.8,1.0947,Ca3As2
B3Z2_Zn3P2_Ca_Sb_None,B3Z2,Zn3P2,Ca,Sb,None,6,4,0,3.64729,63.7,1.0084,Ca3Sb2
B3Z2_Zn3P2_Sr_N_None,B3Z2,Zn3P2,Sr,N,None,6,4,0,4.48786,49.65,0.5659,Sr3N2
B3Z2_Zn3P2_Sr_P_None,B3Z2,Zn3P2,Sr,P,None,6,4,0,3.97776,31.75,1.0251,Sr3P2
B3Z2_Zn3P2_Sr_As_None,B3Z2,Zn3P2,Sr,As,None,6,4,0,3.75906,37.05,0.693,Sr3As2
B3Z2_Zn3P2_Sr_Sb_None,B3Z2,Zn3P2,Sr,Sb,None,6,4,0,3.47318,35.85,0.8764,Sr3Sb2
B3Z2_Zn3P2_Ba_N_None,B3Z2,Zn3P2,Ba,N,None,6,4,0,4.50213,41.45,0.5958,Ba3N2
B3Z2_Zn3P2_Ba_P_None,B3Z2,Zn3P2,Ba,P,None,6,4,0,4.09212,28.95,0.8837,Ba3P2
B3Z2_Zn3P2_Zn_N_None,B3Z2,Zn3P2,Zn,N,None,6,4,0,3.61113,117.55,0,Zn3N2
B3Z2_Zn3P2_Zn_P_None,B3Z2,Zn3P2,Zn,P,None,6,4,0,2.84058,68.05,0,Zn3P2
B3Z2_Zn3P2_Zn_As_None,B3Z2,Zn3P2,Zn,As,None,6,4,0,2.5364,45.6,0.7002,Zn3As2
B3Z2_Zn3P2_Zn_Sb_None,B3Z2,Zn3P2,Zn,Sb,None,6,4,0,2.22514,45.95,0.4134,Zn3Sb2
B3Z2_Zn3P2_Cd_N_None,B3Z2,Zn3P2,Cd,N,None,6,4,0,2.94798,93.3,0,Cd3N2