Compound,type,st,a1,a2,a3,n1,n2,n3,Ecoh,BM,bandgap,formula
BC2Y4_In2ZnS4_Sr_Sc_Te,BC2Y4,In2ZnS4,Sr,Sc,Te,1,2,4,4.92872,54.15,0.8475,SrSc2Te4
BC2Y4_In2ZnS4_Sr_Y_O,BC2Y4,In2ZnS4,Sr,Y,O,1,2,4,8.1171,111.45,3.2216,SrY2O4
BC2Y4_In2ZnS4_Sr_Y_S,BC2Y4,In2ZnS4,Sr,Y,S,1,2,4,6.35621,55.2,2.8506,SrY2S4
BC2Y4_In2ZnS4_Sr_Y_Se,BC2Y4,In2ZnS4,Sr,Y,Se,1,2,4,5.82602,46.15,2.2961,SrY2Se4
BC2Y4_In2ZnS4_Sr_La_O,BC2Y4,In2ZnS4,Sr,La,O,1,2,4,7.66986,96.05,3.0843,SrLa2O4
BC2Y4_In2ZnS4_Ba_Al_O,BC2Y4,In2ZnS4,Ba,Al,O,1,2,4,6.60513,146.9,2.4996,BaAl2O4
BC2Y4_In2ZnS4_Ba_Al_S,BC2Y4,In2ZnS4,Ba,Al,S,1,2,4,4.7019,64.75,1.2093,BaAl2S4
BC2Y4_In2ZnS4_Ba_Al_Se,BC2Y4,In2ZnS4,Ba,Al,Se,1,2,4,4.19853,48.35,0.1383,BaAl2Se4
BC2Y4_In2ZnS4_Ba_Ga_O,BC2Y4,In2ZnS4,Ba,Ga,O,1,2,4,5.6949,134.1,1.541,BaGa2O4
BC2Y4_In2ZnS4_Ba_Ga_S,BC2Y4,In2ZnS4,Ba,Ga,S,1,2,4,4.14462,54.6,0.1111,BaGa2S4
BC2Y4_In2ZnS4_Ba_Ga_Se,BC2Y4,In2ZnS4,Ba,Ga,Se,1,2,4,3.7625,44.75,0,BaGa2Se4
BC2Y4_In2ZnS4_Ba_Ga_Te,BC2Y4,In2ZnS4,Ba,Ga,Te,1,2,4,3.33295,46.15,0,BaGa2Te4
BC2Y4_In2ZnS4_Ba_In_O,BC2Y4,In2ZnS4,Ba,In,O,1,2,4,5.55068,115.6,1.1761,BaIn2O4
BC2Y4_In2ZnS4_Ba_In_S,BC2Y4,In2ZnS4,Ba,In,S,1,2,4,4.14673,49.75,0.6853,BaIn2S4
BC2Y4_In2ZnS4_Ba_In_Se,BC2Y4,In2ZnS4,Ba,In,Se,1,2,4,3.76304,41.15,0.5254,BaIn2Se4
BC2Y4_In2ZnS4_Ba_In_Te,BC2Y4,In2ZnS4,Ba,In,Te,1,2,4,3.32211,35.3,0,BaIn2Te4
BC2Y4_In2ZnS4_Ba_Sc_O,BC2Y4,In2ZnS4,Ba,Sc,O,1,2,4,7.89747,126.25,3.075,BaSc2O4
BC2Y4_In2ZnS4_Ba_Sc_S,BC2Y4,In2ZnS4,Ba,Sc,S,1,2,4,6.07995,59.5,1.8371,BaSc2S4
BC2Y4_In2ZnS4_Ba_Sc_Se,BC2Y4,In2ZnS4,Ba,Sc,Se,1,2,4,5.57133,48.55,1.476,BaSc2Se4
BC2Y4_In2ZnS4_Ba_Sc_Te,BC2Y4,In2ZnS4,Ba,Sc,Te,1,2,4,4.95399,35.2,0.904,BaSc2Te4
BC2Y4_In2ZnS4_Ba_Y_O,BC2Y4,In2ZnS4,Ba,Y,O,1,2,4,8.0556,104.65,2.979,BaY2O4
BC2Y4_In2ZnS4_Ba_Y_S,BC2Y4,In2ZnS4,Ba,Y,S,1,2,4,6.3531,51.65,2.6608,BaY2S4
BC2Y4_In2ZnS4_Ba_Y_Se,BC2Y4,In2ZnS4,Ba,Y,Se,1,2,4,5.83903,43.45,2.1764,BaY2Se4
BC2Y4_In2ZnS4_Ba_Y_Te,BC2Y4,In2ZnS4,Ba,Y,Te,1,2,4,5.20577,36.1,1.7971,BaY2Te4
BC2Y4_In2ZnS4_Ba_La_O,BC2Y4,In2ZnS4,Ba,La,O,1,2,4,7.63173,91.4,3.0099,BaLa2O4
BC2Y4_In2ZnS4_Ba_La_Se,BC2Y4,In2ZnS4,Ba,La,Se,1,2,4,5.54475,39.65,2.4754,BaLa2Se4
BC2Y4_In2ZnS4_Zn_Al_O,BC2Y4,In2ZnS4,Zn,Al,O,1,2,4,6.592,191.2,2.5032,ZnAl2O4
BC2Y4_In2ZnS4_Zn_Al_S,BC2Y4,In2ZnS4,Zn,Al,S,1,2,4,4.51471,77.85,0.6694,ZnAl2S4
BC2Y4_In2ZnS4_Zn_Al_Se,BC2Y4,In2ZnS4,Zn,Al,Se,1,2,4,3.985,58.2,0.0464,ZnAl2Se4
BC2Y4_In2ZnS4_Zn_Ga_O,BC2Y4,In2ZnS4,Zn,Ga,O,1,2,4,5.57611,172.6,1.007,ZnGa2O4
BC2Y4_In2ZnS4_Zn_Ga_S,BC2Y4,In2ZnS4,Zn,Ga,S,1,2,4,3.97026,73.1,0,ZnGa2S4
BC2Y4_In2ZnS4_Zn_Ga_Se,BC2Y4,In2ZnS4,Zn,Ga,Se,1,2,4,3.53871,54.75,0,ZnGa2Se4
BC2Y4_In2ZnS4_Zn_Ga_Te,BC2Y4,In2ZnS4,Zn,Ga,Te,1,2,4,3.0711,81.75,0,ZnGa2Te4
BC2Y4_In2ZnS4_Zn_In_O,BC2Y4,In2ZnS4,Zn,In,O,1,2,4,5.22777,152.9,0.1679,ZnIn2O4
BC2Y4_In2ZnS4_Zn_In_S,BC2Y4,In2ZnS4,Zn,In,S,1,2,4,3.83674,67.75,0.0949,ZnIn2S4
BC2Y4_In2ZnS4_Zn_In_Se,BC2Y4,In2ZnS4,Zn,In,Se,1,2,4,3.45009,51.05,0,ZnIn2Se4
BC2Y4_In2ZnS4_Zn_In_Te,BC2Y4,In2ZnS4,Zn,In,Te,1,2,4,3.01058,45.4,0.0753,ZnIn2Te4
BC2Y4_In2ZnS4_Zn_Sc_O,BC2Y4,In2ZnS4,Zn,Sc,O,1,2,4,7.6581,168,3.0126,ZnSc2O4
BC2Y4_In2ZnS4_Zn_Sc_S,BC2Y4,In2ZnS4,Zn,Sc,S,1,2,4,5.7375,75.7,1.9025,ZnSc2S4
BC2Y4_In2ZnS4_Zn_Sc_Se,BC2Y4,In2ZnS4,Zn,Sc,Se,1,2,4,5.20536,60.75,1.099,ZnSc2Se4
BC2Y4_In2ZnS4_Zn_Sc_Te,BC2Y4,In2ZnS4,Zn,Sc,Te,1,2,4,4.59225,51.45,0.7056,ZnSc2Te4
BC2Y4_In2ZnS4_Zn_Y_O,BC2Y4,In2ZnS4,Zn,Y,O,1,2,4,7.64631,131.85,2.2687,ZnY2O4
BC2Y4_In2ZnS4_Zn_Y_S,BC2Y4,In2ZnS4,Zn,Y,S,1,2,4,5.89167,66.5,2.1622,ZnY2S4
BC2Y4_In2ZnS4_Zn_Y_Se,BC2Y4,In2ZnS4,Zn,Y,Se,1,2,4,5.37418,54.45,1.5986,ZnY2Se4
BC2Y4_In2ZnS4_Zn_La_O,BC2Y4,In2ZnS4,Zn,La,O,1,2,4,7.10966,112.35,1.9335,ZnLa2O4
BC2Y4_In2ZnS4_Zn_La_S,BC2Y4,In2ZnS4,Zn,La,S,1,2,4,5.47439,56.95,1.7682,ZnLa2S4
BC2Y4_In2ZnS4_Zn_La_Se,BC2Y4,In2ZnS4,Zn,La,Se,1,2,4,4.98831,46.75,1.2727,ZnLa2Se4
BC2Y4_In2ZnS4_Cd_Al_O,BC2Y4,In2ZnS4,Cd,Al,O,1,2,4,6.3293,177.75,1.2425,CdAl2O4
BC2Y4_In2ZnS4_Cd_Al_S,BC2Y4,In2ZnS4,Cd,Al,S,1,2,4,4.34528,70.75,0,CdAl2S4
BC2Y4_In2ZnS4_Cd_Al_Se,BC2Y4,In2ZnS4,Cd,Al,Se,1,2,4,3.85775,54.15,0,CdAl2Se4
BC2Y4_In2ZnS4_Cd_Al_Te,BC2Y4,In2ZnS4,Cd,Al,Te,1,2,4,3.33052,59,0,CdAl2Te4
BC2Y4_In2ZnS4_Cd_Ga_O,BC2Y4,In2ZnS4,Cd,Ga,O,1,2,4,5.34512,169.45,0.4061,CdGa2O4
BC2Y4_In2ZnS4_Cd_Ga_S,BC2Y4,In2ZnS4,Cd,Ga,S,1,2,4,3.81388,67.1,0,CdGa2S4
BC2Y4_In2ZnS4_Cd_Ga_Se,BC2Y4,In2ZnS4,Cd,Ga,Se,1,2,4,3.42309,60.05,0,CdGa2Se4
BC2Y4_In2ZnS4_Cd_Ga_Te,BC2Y4,In2ZnS4,Cd,Ga,Te,1,2,4,2.99025,36.95,0,CdGa2Te4
BC2Y4_In2ZnS4_Cd_In_O,BC2Y4,In2ZnS4,Cd,In,O,1,2,4,5.07534,130.45,0,CdIn2O4
BC2Y4_In2ZnS4_Cd_In_S,BC2Y4,In2ZnS4,Cd,In,S,1,2,4,3.72765,60.85,0,CdIn2S4
BC2Y4_In2ZnS4_Cd_In_Se,BC2Y4,In2ZnS4,Cd,In,Se,1,2,4,3.36647,52.05,0,CdIn2Se4
BC2Y4_In2ZnS4_Cd_In_Te,BC2Y4,In2ZnS4,Cd,In,Te,1,2,4,2.94991,44.7,0,CdIn2Te4
BC2Y4_In2ZnS4_Cd_Sc_O,BC2Y4,In2ZnS4,Cd,Sc,O,1,2,4,7.47191,148.15,2.1355,CdSc2O4
BC2Y4_In2ZnS4_Cd_Sc_S,BC2Y4,In2ZnS4,Cd,Sc,S,1,2,4,5.65695,70.65,1.7592,CdSc2S4
BC2Y4_In2ZnS4_Cd_Sc_Se,BC2Y4,In2ZnS4,Cd,Sc,Se,1,2,4,5.1467,60.6,1.3727,CdSc2Se4
BC2Y4_In2ZnS4_Cd_Sc_Te,BC2Y4,In2ZnS4,Cd,Sc,Te,1,2,4,4.54373,49.9,0.778,CdSc2Te4
BC2Y4_In2ZnS4_Cd_Y_O,BC2Y4,In2ZnS4,Cd,Y,O,1,2,4,7.53122,126.95,1.9282,CdY2O4
BC2Y4_In2ZnS4_Cd_Y_S,BC2Y4,In2ZnS4,Cd,Y,S,1,2,4,5.85448,61.25,2.1186,CdY2S4
BC2Y4_In2ZnS4_Cd_Y_Se,BC2Y4,In2ZnS4,Cd,Y,Se,1,2,4,5.34699,50.7,1.6334,CdY2Se4
BC2Y4_In2ZnS4_Cd_Y_Te,BC2Y4,In2ZnS4,Cd,Y,Te,1,2,4,4.73907,45.75,1.5744,CdY2Te4
BC2Y4_In2ZnS4_Cd_La_O,BC2Y4,In2ZnS4,Cd,La,O,1,2,4,7.03466,105.4,1.7938,CdLa2O4
BC2Y4_In2ZnS4_Cd_La_S,BC2Y4,In2ZnS4,Cd,La,S,1,2,4,5.46675,54.75,1.9291,CdLa2S4
BC2Y4_In2ZnS4_Cd_La_Se,BC2Y4,In2ZnS4,Cd,La,Se,1,2,4,4.98724,44.8,1.4971,CdLa2Se4
BC2Y4_In2ZnS4_Hg_Al_O,BC2Y4,In2ZnS4,Hg,Al,O,1,2,4,6.01083,175.05,0.4067,HgAl2O4
BC2Y4_In2ZnS4_Hg_Al_S,BC2Y4,In2ZnS4,Hg,Al,S,1,2,4,4.1157,71.9,0,HgAl2S4
BC2Y4_In2ZnS4_Hg_Al_Se,BC2Y4,In2ZnS4,Hg,Al,Se,1,2,4,3.65519,56.85,0,HgAl2Se4
BC2Y4_In2ZnS4_Hg_Al_Te,BC2Y4,In2ZnS4,Hg,Al,Te,1,2,4,3.16402,65.8,0,HgAl2Te4
BC2Y4_In2ZnS4_Hg_Ga_O,BC2Y4,In2ZnS4,Hg,Ga,O,1,2,4,5.02098,158.85,0,HgGa2O4
BC2Y4_In2ZnS4_Hg_Ga_S,BC2Y4,In2ZnS4,Hg,Ga,S,1,2,4,3.59008,68.6,0,HgGa2S4
BC2Y4_In2ZnS4_Hg_Ga_Se,BC2Y4,In2ZnS4,Hg,Ga,Se,1,2,4,3.22444,55,0.0169,HgGa2Se4
BC2Y4_In2ZnS4_Hg_Ga_Te,BC2Y4,In2ZnS4,Hg,Ga,Te,1,2,4,2.83196,37.95,0,HgGa2Te4
BC2Y4_In2ZnS4_Hg_In_O,BC2Y4,In2ZnS4,Hg,In,O,1,2,4,4.74428,136.35,0,HgIn2O4
BC2Y4_In2ZnS4_Hg_In_S,BC2Y4,In2ZnS4,Hg,In,S,1,2,4,3.50914,60.5,0,HgIn2S4
BC2Y4_In2ZnS4_Hg_In_Se,BC2Y4,In2ZnS4,Hg,In,Se,1,2,4,3.17151,48.1,0,HgIn2Se4
BC2Y4_In2ZnS4_Hg_In_Te,BC2Y4,In2ZnS4,Hg,In,Te,1,2,4,2.78984,44.6,0,HgIn2Te4
BC2Y4_In2ZnS4_Hg_Sc_O,BC2Y4,In2ZnS4,Hg,Sc,O,1,2,4,7.14436,145.9,1.0577,HgSc2O4
BC2Y4_In2ZnS4_Hg_Sc_S,BC2Y4,In2ZnS4,Hg,Sc,S,1,2,4,5.42585,70.65,1.4598,HgSc2S4
BC2Y4_In2ZnS4_Hg_Sc_Se,BC2Y4,In2ZnS4,Hg,Sc,Se,1,2,4,4.94156,59.4,0.9854,HgSc2Se4
BC2Y4_In2ZnS4_Hg_Sc_Te,BC2Y4,In2ZnS4,Hg,Sc,Te,1,2,4,4.35859,40.6,0.4631,HgSc2Te4
BC2Y4_In2ZnS4_Hg_Y_O,BC2Y4,In2ZnS4,Hg,Y,O,1,2,4,7.20737,118.9,0.854,HgY2O4
BC2Y4_In2ZnS4_Hg_Y_S,BC2Y4,In2ZnS4,Hg,Y,S,1,2,4,5.62385,61.35,1.2082,HgY2S4
BC2Y4_In2ZnS4_Hg_Y_Se,BC2Y4,In2ZnS4,Hg,Y,Se,1,2,4,5.14241,50.35,1.0381,HgY2Se4
BC2Y4_In2ZnS4_Hg_La_O,BC2Y4,In2ZnS4,Hg,La,O,1,2,4,6.72661,100,0.7845,HgLa2O4
BC2Y4_In2ZnS4_Hg_La_S,BC2Y4,In2ZnS4,Hg,La,S,1,2,4,5.23813,52.65,1.0931,HgLa2S4
BC2Y4_In2ZnS4_Hg_La_Se,BC2Y4,In2ZnS4,Hg,La,Se,1,2,4,4.78517,45.35,0.8234,HgLa2Se4
BC2Y4_In2ZnS4_Hg_La_Te,BC2Y4,In2ZnS4,Hg,La,Te,1,2,4,2.01124,-64.3,,HgLa2Te4
BC2Y4_Na2MnO4_Be_Al_O,BC2Y4,Na2MnO4,Be,Al,O,,2,8,6.76671,201.65,3.1982,BeAl2O4
BC2Y4_Na2MnO4_Be_Al_S,BC2Y4,Na2MnO4,Be,Al,S,,2,8,4.41074,77.65,0,BeAl2S4
BC2Y4_Na2MnO4_Be_Al_Se,BC2Y4,Na2MnO4,Be,Al,Se,,2,8,3.85314,60.9,0.1422,BeAl2Se4
BC2Y4_Na2MnO4_Be_Al_Te,BC2Y4,Na2MnO4,Be,Al,Te,,2,8,3.3372,53.05,0.2144,BeAl2Te4
BC2Y4_Na2MnO4_Be_Ga_O,BC2Y4,Na2MnO4,Be,Ga,O,,2,8,5.75991,189.3,0.6187,BeGa2O4
BC2Y4_Na2MnO4_Be_Ga_S,BC2Y4,Na2MnO4,Be,Ga,S,,2,8,3.89881,67.8,0.0908,BeGa2S4
BC2Y4_Na2MnO4_Be_Ga_Se,BC2Y4,Na2MnO4,Be,Ga,Se,,2,8,3.4894,52.4,0.1182,BeGa2Se4
BC2Y4_Na2MnO4_Be_Ga_Te,BC2Y4,Na2MnO4,Be,Ga,Te,,2,8,2.91816,21.15,0.4016,BeGa2Te4
BC2Y4_Na2MnO4_Be_In_O,BC2Y4,Na2MnO4,Be,In,O,,2,8,5.52588,157.2,0,BeIn2O4
BC2Y4_Na2MnO4_Be_In_S,BC2Y4,Na2MnO4,Be,In,S,,2,8,3.80806,64,0.0195,BeIn2S4
BC2Y4_Na2MnO4_Be_In_Se,BC2Y4,Na2MnO4,Be,In,Se,,2,8,3.4068,48.9,0.0325,BeIn2Se4
BC2Y4_Na2MnO4_Be_In_Te,BC2Y4,Na2MnO4,Be,In,Te,,2,8,2.85478,24.4,0.1123,BeIn2Te4
BC2Y4_Na2MnO4_Be_Sc_O,BC2Y4,Na2MnO4,Be,Sc,O,,2,8,7.97973,179.5,1.8149,BeSc2O4
BC2Y4_Na2MnO4_Be_Sc_S,BC2Y4,Na2MnO4,Be,Sc,S,,2,8,5.85406,82.8,0,BeSc2S4
BC2Y4_Na2MnO4_Be_Sc_Se,BC2Y4,Na2MnO4,Be,Sc,Se,,2,8,5.29441,69.5,0,BeSc2Se4
BC2Y4_Na2MnO4_Be_Sc_Te,BC2Y4,Na2MnO4,Be,Sc,Te,,2,8,4.65392,49.2,0,BeSc2Te4
BC2Y4_Na2MnO4_Be_Y_O,BC2Y4,Na2MnO4,Be,Y,O,,,8,8.10393,144.45,2.6716,BeY2O4
BC2Y4_Na2MnO4_Be_Y_S,BC2Y4,Na2MnO4,Be,Y,S,,,8,6.08466,73.65,0.1741,BeY2S4
BC2Y4_Na2MnO4_Be_Y_Se,BC2Y4,Na2MnO4,Be,Y,Se,,,8,5.52101,59.55,0,BeY2Se4
BC2Y4_Na2MnO4_Be_Y_Te,BC2Y4,Na2MnO4,Be,Y,Te,,,8,4.86414,79.2,0,BeY2Te4
BC2Y4_Na2MnO4_Be_La_O,BC2Y4,Na2MnO4,Be,La,O,,2,8,7.80837,131.55,3.3835,BeLa2O4
BC2Y4_Na2MnO4_Be_La_S,BC2Y4,Na2MnO4,Be,La,S,,2,8,5.80946,67.95,0.4741,BeLa2S4
BC2Y4_Na2MnO4_Be_La_Se,BC2Y4,Na2MnO4,Be,La,Se,,2,8,5.26882,56.95,0.1731,BeLa2Se4
BC2Y4_Na2MnO4_Mg_Al_O,BC2Y4,Na2MnO4,Mg,Al,O,2,4,8,6.47738,145.2,0.6874,MgAl2O4
BC2Y4_Na2MnO4_Mg_Al_S,BC2Y4,Na2MnO4,Mg,Al,S,2,4,8,4.24839,70.1,0.0314,MgAl2S4
BC2Y4_Na2MnO4_Mg_Al_Se,BC2Y4,Na2MnO4,Mg,Al,Se,2,4,8,3.70578,50,0.0224,MgAl2Se4
BC2Y4_Na2MnO4_Mg_Ga_O,BC2Y4,Na2MnO4,Mg,Ga,O,2,4,8,5.47458,132.05,0,MgGa2O4
BC2Y4_Na2MnO4_Mg_Ga_S,BC2Y4,Na2MnO4,Mg,Ga,S,2,4,8,3.47275,46.2,0.0997,MgGa2S4
BC2Y4_Na2MnO4_Mg_Ga_Se,BC2Y4,Na2MnO4,Mg,Ga,Se,2,4,8,3.3253,41.75,0.0622,MgGa2Se4
BC2Y4_Na2MnO4_Mg_In_O,BC2Y4,Na2MnO4,Mg,In,O,2,4,8,5.12852,133.55,0,MgIn2O4
BC2Y4_Na2MnO4_Mg_In_S,BC2Y4,Na2MnO4,Mg,In,S,2,4,8,3.47641,49.35,0.1949,MgIn2S4
BC2Y4_Na2MnO4_Mg_In_Se,BC2Y4,Na2MnO4,Mg,In,Se,2,4,8,3.24553,41.65,0.0376,MgIn2Se4
BC2Y4_Na2MnO4_Mg_Sc_O,BC2Y4,Na2MnO4,Mg,Sc,O,2,4,8,7.54649,146.2,2.5223,MgSc2O4
BC2Y4_Na2MnO4_Mg_Sc_S,BC2Y4,Na2MnO4,Mg,Sc,S,2,4,8,5.63164,70.85,0.3995,MgSc2S4
BC2Y4_Na2MnO4_Mg_Sc_Se,BC2Y4,Na2MnO4,Mg,Sc,Se,2,4,8,5.10844,58.05,0.1705,MgSc2Se4
BC2Y4_Na2MnO4_Mg_Y_O,BC2Y4,Na2MnO4,Mg,Y,O,2,4,8,7.6015,125.75,2.2019,MgY2O4
BC2Y4_Na2MnO4_Mg_Y_S,BC2Y4,Na2MnO4,Mg,Y,S,2,4,8,5.84599,65.2,0.7033,MgY2S4
BC2Y4_Na2MnO4_Mg_Y_Se,BC2Y4,Na2MnO4,Mg,Y,Se,2,4,8,5.32474,52.95,0.4306,MgY2Se4
BC2Y4_Na2MnO4_Mg_La_O,BC2Y4,Na2MnO4,Mg,La,O,2,4,8,7.28981,104,3.1646,MgLa2O4
BC2Y4_Na2MnO4_Mg_La_S,BC2Y4,Na2MnO4,Mg,La,S,2,4,8,5.54922,57.15,1.0507,MgLa2S4
BC2Y4_Na2MnO4_Ca_Al_O,BC2Y4,Na2MnO4,Ca,Al,O,2,4,8,5.95783,63.8,0.1819,CaAl2O4
BC2Y4_Na2MnO4_Ca_Al_S,BC2Y4,Na2MnO4,Ca,Al,S,2,4,8,4.61208,57.25,0.6327,CaAl2S4
BC2Y4_Na2MnO4_Ca_Al_Se,BC2Y4,Na2MnO4,Ca,Al,Se,2,4,8,3.63267,31.35,0.3066,CaAl2Se4
BC2Y4_Na2MnO4_Ca_Al_Te,BC2Y4,Na2MnO4,Ca,Al,Te,2,4,8,3.42824,28.55,0.0443,CaAl2Te4
BC2Y4_Na2MnO4_Ca_Ga_O,BC2Y4,Na2MnO4,Ca,Ga,O,2,4,8,4.98223,86.3,0.1569,CaGa2O4
BC2Y4_Na2MnO4_Ca_Ga_S,BC2Y4,Na2MnO4,Ca,Ga,S,2,4,8,3.69724,43.85,0.1378,CaGa2S4
BC2Y4_Na2MnO4_Ca_Ga_Te,BC2Y4,Na2MnO4,Ca,Ga,Te,2,4,8,3.16101,26.3,0.5077,CaGa2Te4
BC2Y4_Na2MnO4_Ca_In_O,BC2Y4,Na2MnO4,Ca,In,O,2,4,8,4.86054,78.55,0.066,CaIn2O4
BC2Y4_Na2MnO4_Ca_In_S,BC2Y4,Na2MnO4,Ca,In,S,2,4,8,3.88277,50.05,0.0244,CaIn2S4
BC2Y4_Na2MnO4_Ca_In_Te,BC2Y4,Na2MnO4,Ca,In,Te,2,4,8,3.03956,23.1,0.006,CaIn2Te4
BC2Y4_Na2MnO4_Ca_Sc_O,BC2Y4,Na2MnO4,Ca,Sc,O,2,4,8,7.74442,120.8,2.9137,CaSc2O4
BC2Y4_Na2MnO4_Ca_Sc_S,BC2Y4,Na2MnO4,Ca,Sc,S,2,4,8,5.85863,64.4,1.0515,CaSc2S4
BC2Y4_Na2MnO4_Ca_Sc_Te,BC2Y4,Na2MnO4,Ca,Sc,Te,2,4,8,4.72408,48,0.1095,CaSc2Te4
BC2Y4_Na2MnO4_Ca_Y_O,BC2Y4,Na2MnO4,Ca,Y,O,2,4,8,7.71182,106.6,2.181,CaY2O4
BC2Y4_Na2MnO4_Ca_Y_S,BC2Y4,Na2MnO4,Ca,Y,S,2,4,8,6.04087,57,1.0372,CaY2S4
BC2Y4_Na2MnO4_Ca_Y_Te,BC2Y4,Na2MnO4,Ca,Y,Te,2,4,8,4.92078,37.65,0.3829,CaY2Te4
BC2Y4_Na2MnO4_Ca_La_O,BC2Y4,Na2MnO4,Ca,La,O,2,4,8,7.30074,90.55,2.6779,CaLa2O4
BC2Y4_Na2MnO4_Ca_La_S,BC2Y4,Na2MnO4,Ca,La,S,2,4,8,5.71521,50.55,1.3062,CaLa2S4
BC2Y4_Na2MnO4_Ca_La_Se,BC2Y4,Na2MnO4,Ca,La,Se,2,4,8,4.0878,7172.55,,CaLa2Se4
BC2Y4_Na2MnO4_Sr_Al_O,BC2Y4,Na2MnO4,Sr,Al,O,2,4,8,5.84855,57.65,0.2575,SrAl2O4
BC2Y4_Na2MnO4_Sr_Al_S,BC2Y4,Na2MnO4,Sr,Al,S,2,4,8,4.6427,52.3,0.9354,SrAl2S4
BC2Y4_Na2MnO4_Sr_Al_Se,BC2Y4,Na2MnO4,Sr,Al,Se,2,4,8,3.66473,31.1,0.3373,SrAl2Se4
BC2Y4_Na2MnO4_Sr_Al_Te,BC2Y4,Na2MnO4,Sr,Al,Te,2,4,8,3.44918,40.85,0.1138,SrAl2Te4
BC2Y4_Na2MnO4_Sr_Ga_O,BC2Y4,Na2MnO4,Sr,Ga,O,2,4,8,4.83592,73.55,0.139,SrGa2O4
BC2Y4_Na2MnO4_Sr_Ga_S,BC2Y4,Na2MnO4,Sr,Ga,S,2,4,8,3.58483,33.1,0.0407,SrGa2S4
BC2Y4_Na2MnO4_Sr_Ga_Te,BC2Y4,Na2MnO4,Sr,Ga,Te,2,4,8,3.18296,26.15,0.7161,SrGa2Te4
BC2Y4_Na2MnO4_Sr_In_O,BC2Y4,Na2MnO4,Sr,In,O,2,4,8,4.71853,70.3,0.0921,SrIn2O4
BC2Y4_Na2MnO4_Sr_In_S,BC2Y4,Na2MnO4,Sr,In,S,2,4,8,3.86914,49.95,0,SrIn2S4
BC2Y4_Na2MnO4_Sr_In_Te,BC2Y4,Na2MnO4,Sr,In,Te,2,4,8,3.04368,25.2,0.0129,SrIn2Te4
BC2Y4_Na2MnO4_Sr_Sc_O,BC2Y4,Na2MnO4,Sr,Sc,O,2,4,8,7.72422,110.25,2.8788,SrSc2O4
BC2Y4_Na2MnO4_Sr_Sc_S,BC2Y4,Na2MnO4,Sr,Sc,S,2,4,8,5.84002,60.35,1.3735,SrSc2S4
BC2Y4_Na2MnO4_Sr_Sc_Te,BC2Y4,Na2MnO4,Sr,Sc,Te,2,4,8,4.71595,54.4,0.2283,SrSc2Te4
BC2Y4_Na2MnO4_Sr_Y_O,BC2Y4,Na2MnO4,Sr,Y,O,2,4,8,7.66268,94.65,2.4702,SrY2O4
BC2Y4_Na2MnO4_Sr_Y_S,BC2Y4,Na2MnO4,Sr,Y,S,2,4,8,6.00339,53.8,1.3153,SrY2S4
BC2Y4_Na2MnO4_Sr_Y_Te,BC2Y4,Na2MnO4,Sr,Y,Te,2,4,8,4.90318,38.05,0.5796,SrY2Te4
BC2Y4_Na2MnO4_Sr_La_O,BC2Y4,Na2MnO4,Sr,La,O,2,4,8,7.1936,82.25,2.4643,SrLa2O4
BC2Y4_Na2MnO4_Sr_La_S,BC2Y4,Na2MnO4,Sr,La,S,2,4,8,5.66234,48.6,1.4612,SrLa2S4
BC2Y4_Na2MnO4_Ba_Al_O,BC2Y4,Na2MnO4,Ba,Al,O,,2,8,6.87537,108.95,1.8489,BaAl2O4
BC2Y4_Na2MnO4_Ba_Al_Se,BC2Y4,Na2MnO4,Ba,Al,Se,,2,8,4.14324,30.3,0.9346,BaAl2Se4
BC2Y4_Na2MnO4_Ba_Ga_O,BC2Y4,Na2MnO4,Ba,Ga,O,,2,8,4.77218,68.45,0.1215,BaGa2O4
BC2Y4_Na2MnO4_Ba_In_O,BC2Y4,Na2MnO4,Ba,In,O,,2,8,4.67424,63.75,0.0362,BaIn2O4
BC2Y4_Na2MnO4_Ba_In_Se,BC2Y4,Na2MnO4,Ba,In,Se,,2,8,3.58688,31.9,0.0822,BaIn2Se4
BC2Y4_Na2MnO4_Ba_Sc_O,BC2Y4,Na2MnO4,Ba,Sc,O,,2,8,7.80489,98.4,2.9844,BaSc2O4
BC2Y4_Na2MnO4_Ba_Y_O,BC2Y4,Na2MnO4,Ba,Y,O,,,8,7.73929,87.35,2.8229,BaY2O4
BC2Y4_Na2MnO4_Ba_Y_Se,BC2Y4,Na2MnO4,Ba,Y,Se,,,8,5.57841,44.2,1.054,BaY2Se4
BC2Y4_Na2MnO4_Ba_La_O,BC2Y4,Na2MnO4,Ba,La,O,,2,8,7.28752,74.8,2.5786,BaLa2O4
BC2Y4_Na2MnO4_Zn_Al_O,BC2Y4,Na2MnO4,Zn,Al,O,2,4,8,6.06239,152.55,0.4591,ZnAl2O4
BC2Y4_Na2MnO4_Zn_Al_S,BC2Y4,Na2MnO4,Zn,Al,S,2,4,8,3.98151,73.7,0,ZnAl2S4
BC2Y4_Na2MnO4_Zn_Al_Se,BC2Y4,Na2MnO4,Zn,Al,Se,2,4,8,3.4772,55.9,0.1106,ZnAl2Se4
BC2Y4_Na2MnO4_Zn_Ga_O,BC2Y4,Na2MnO4,Zn,Ga,O,2,4,8,4.99601,168.55,0,ZnGa2O4
BC2Y4_Na2MnO4_Zn_Ga_S,BC2Y4,Na2MnO4,Zn,Ga,S,2,4,8,3.0245,27.1,2.7336,ZnGa2S4
BC2Y4_Na2MnO4_Zn_Ga_Se,BC2Y4,Na2MnO4,Zn,Ga,Se,2,4,8,3.10346,49.2,0.0854,ZnGa2Se4
BC2Y4_Na2MnO4_Zn_In_O,BC2Y4,Na2MnO4,Zn,In,O,2,4,8,4.72801,125.95,0,ZnIn2O4
BC2Y4_Na2MnO4_Zn_In_S,BC2Y4,Na2MnO4,Zn,In,S,2,4,8,2.97734,37.75,0,ZnIn2S4
BC2Y4_Na2MnO4_Zn_In_Se,BC2Y4,Na2MnO4,Zn,In,Se,2,4,8,3.02036,49.45,0.0713,ZnIn2Se4
BC2Y4_Na2MnO4_Zn_Sc_O,BC2Y4,Na2MnO4,Zn,Sc,O,2,4,8,7.18043,160.35,2.6783,ZnSc2O4
BC2Y4_Na2MnO4_Zn_Sc_S,BC2Y4,Na2MnO4,Zn,Sc,S,2,4,8,5.40118,73.55,0.1012,ZnSc2S4
BC2Y4_Na2MnO4_Zn_Sc_Se,BC2Y4,Na2MnO4,Zn,Sc,Se,2,4,8,4.89322,61.15,0,ZnSc2Se4
BC2Y4_Na2MnO4_Zn_Sc_Te,BC2Y4,Na2MnO4,Zn,Sc,Te,2,4,8,4.31215,49.45,0.0084,ZnSc2Te4
BC2Y4_Na2MnO4_Zn_Y_O,BC2Y4,Na2MnO4,Zn,Y,O,2,4,8,7.2425,129.9,2.4283,ZnY2O4
BC2Y4_Na2MnO4_Zn_Y_S,BC2Y4,Na2MnO4,Zn,Y,S,2,4,8,5.61914,68.05,0.4764,ZnY2S4
BC2Y4_Na2MnO4_Zn_Y_Se,BC2Y4,Na2MnO4,Zn,Y,Se,2,4,8,5.11036,55.3,0.1259,ZnY2Se4
BC2Y4_Na2MnO4_Zn_Y_Te,BC2Y4,Na2MnO4,Zn,Y,Te,2,4,8,4.51786,47.05,0,ZnY2Te4
BC2Y4_Na2MnO4_Zn_La_O,BC2Y4,Na2MnO4,Zn,La,O,2,4,8,6.88048,113.35,3.2655,ZnLa2O4
BC2Y4_Na2MnO4_Zn_La_S,BC2Y4,Na2MnO4,Zn,La,S,2,4,8,5.32986,62.95,0.7871,ZnLa2S4
BC2Y4_Na2MnO4_Cd_Al_O,BC2Y4,Na2MnO4,Cd,Al,O,2,4,8,6.04211,86.95,0.6069,CdAl2O4
BC2Y4_Na2MnO4_Cd_Al_Se,BC2Y4,Na2MnO4,Cd,Al,Se,2,4,8,3.41997,55.9,0.0589,CdAl2Se4
BC2Y4_Na2MnO4_Cd_Al_Te,BC2Y4,Na2MnO4,Cd,Al,Te,2,4,8,2.95035,47.45,0.0393,CdAl2Te4
BC2Y4_Na2MnO4_Cd_Ga_O,BC2Y4,Na2MnO4,Cd,Ga,O,2,4,8,4.45304,97,0,CdGa2O4
BC2Y4_Na2MnO4_Cd_Ga_Te,BC2Y4,Na2MnO4,Cd,Ga,Te,2,4,8,2.63161,30.3,0.2508,CdGa2Te4
BC2Y4_Na2MnO4_Cd_In_O,BC2Y4,Na2MnO4,Cd,In,O,2,4,8,4.54068,121.15,0,CdIn2O4
BC2Y4_Na2MnO4_Cd_Sc_O,BC2Y4,Na2MnO4,Cd,Sc,O,2,4,8,7.03462,133.5,1.4737,CdSc2O4
BC2Y4_Na2MnO4_Cd_Y_O,BC2Y4,Na2MnO4,Cd,Y,O,2,4,8,7.04715,114.35,1.5511,CdY2O4
BC2Y4_Na2MnO4_Cd_Y_Te,BC2Y4,Na2MnO4,Cd,Y,Te,2,4,8,4.45969,40.05,0,CdY2Te4
BC2Y4_Na2MnO4_Cd_La_O,BC2Y4,Na2MnO4,Cd,La,O,2,4,8,6.65137,100.75,2.9138,CdLa2O4
BC2Y4_Na2MnO4_Hg_Al_O,BC2Y4,Na2MnO4,Hg,Al,O,2,4,8,4.94803,117.15,0,HgAl2O4
BC2Y4_Na2MnO4_Hg_Al_Se,BC2Y4,Na2MnO4,Hg,Al,Se,2,4,8,3.30152,51.75,0,HgAl2Se4
BC2Y4_Na2MnO4_Hg_Al_Te,BC2Y4,Na2MnO4,Hg,Al,Te,2,4,8,2.87131,33.05,0.0001,HgAl2Te4
BC2Y4_Na2MnO4_Hg_Ga_O,BC2Y4,Na2MnO4,Hg,Ga,O,2,4,8,4.21849,109.85,0.0225,HgGa2O4
BC2Y4_Na2MnO4_Hg_Ga_S,BC2Y4,Na2MnO4,Hg,Ga,S,2,4,8,2.96998,15.85,2.2651,HgGa2S4
BC2Y4_Na2MnO4_Hg_Ga_Se,BC2Y4,Na2MnO4,Hg,Ga,Se,2,4,8,2.85794,46.25,0.145,HgGa2Se4
BC2Y4_Na2MnO4_Hg_In_O,BC2Y4,Na2MnO4,Hg,In,O,2,4,8,4.04305,102,0,HgIn2O4
BC2Y4_Na2MnO4_Hg_In_Se,BC2Y4,Na2MnO4,Hg,In,Se,2,4,8,2.71888,26.5,1.741,HgIn2Se4
BC2Y4_Na2MnO4_Hg_Sc_S,BC2Y4,Na2MnO4,Hg,Sc,S,2,4,8,5.0936,67.2,0.0977,HgSc2S4
BC2Y4_Na2MnO4_Hg_Sc_Se,BC2Y4,Na2MnO4,Hg,Sc,Se,2,4,8,4.62955,55.8,0,HgSc2Se4
BC2Y4_Na2MnO4_Hg_Y_O,BC2Y4,Na2MnO4,Hg,Y,O,2,4,8,6.8083,110.95,0.7335,HgY2O4
BC2Y4_Na2MnO4_Hg_Y_S,BC2Y4,Na2MnO4,Hg,Y,S,2,4,8,5.30377,60.95,0.4715,HgY2S4
BC2Y4_Na2MnO4_Hg_Y_Se,BC2Y4,Na2MnO4,Hg,Y,Se,2,4,8,4.83982,53.55,0.0095,HgY2Se4
BC2Y4_Na2MnO4_Hg_Y_Te,BC2Y4,Na2MnO4,Hg,Y,Te,2,4,8,4.24681,33.45,0.0104,HgY2Te4
BC2Y4_Na2MnO4_Hg_La_O,BC2Y4,Na2MnO4,Hg,La,O,2,4,8,6.39014,97.95,1.4472,HgLa2O4
BC2Y4_Na2MnO4_Hg_La_S,BC2Y4,Na2MnO4,Hg,La,S,2,4,8,4.66107,32.55,1.7703,HgLa2S4
BC2Y4_Nd2CuO4_Be_Al_O,BC2Y4,Nd2CuO4,Be,Al,O,2,4,8,6.68825,212.6,2.4688,BeAl2O4
BC2Y4_Nd2CuO4_Be_Al_S,BC2Y4,Nd2CuO4,Be,Al,S,2,4,8,4.21268,78.9,0,BeAl2S4
BC2Y4_Nd2CuO4_Be_Al_Se,BC2Y4,Nd2CuO4,Be,Al,Se,2,4,8,3.68773,61.9,0,BeAl2Se4
BC2Y4_Nd2CuO4_Be_Ga_O,BC2Y4,Nd2CuO4,Be,Ga,O,2,4,8,5.74809,216.05,0.3034,BeGa2O4
BC2Y4_Nd2CuO4_Be_Ga_S,BC2Y4,Nd2CuO4,Be,Ga,S,2,4,8,3.71867,68.55,0,BeGa2S4
BC2Y4_Nd2CuO4_Be_Ga_Se,BC2Y4,Nd2CuO4,Be,Ga,Se,2,4,8,3.3339,54.85,0.0505,BeGa2Se4
BC2Y4_Nd2CuO4_Be_Ga_Te,BC2Y4,Nd2CuO4,Be,Ga,Te,2,4,8,2.96661,67.6,0,BeGa2Te4
BC2Y4_Nd2CuO4_Be_In_O,BC2Y4,Nd2CuO4,Be,In,O,2,4,8,5.58773,196.3,0.0963,BeIn2O4
BC2Y4_Nd2CuO4_Be_In_S,BC2Y4,Nd2CuO4,Be,In,S,2,4,8,3.73609,77.25,0,BeIn2S4
BC2Y4_Nd2CuO4_Be_In_Se,BC2Y4,Nd2CuO4,Be,In,Se,2,4,8,3.33166,52.85,0.0732,BeIn2Se4
BC2Y4_Nd2CuO4_Be_In_Te,BC2Y4,Nd2CuO4,Be,In,Te,2,4,8,2.90015,44.75,0.1726,BeIn2Te4
BC2Y4_Nd2CuO4_Be_Sc_O,BC2Y4,Nd2CuO4,Be,Sc,O,2,4,8,8.15914,208.9,3.0808,BeSc2O4
BC2Y4_Nd2CuO4_Be_Sc_S,BC2Y4,Nd2CuO4,Be,Sc,S,2,4,8,5.86637,89.25,0.1045,BeSc2S4
BC2Y4_Nd2CuO4_Be_Sc_Se,BC2Y4,Nd2CuO4,Be,Sc,Se,2,4,8,5.28357,70.85,0.046,BeSc2Se4
BC2Y4_Nd2CuO4_Be_Sc_Te,BC2Y4,Nd2CuO4,Be,Sc,Te,2,4,8,4.60973,63.8,0,BeSc2Te4
BC2Y4_Nd2CuO4_Be_Y_O,BC2Y4,Nd2CuO4,Be,Y,O,2,4,8,8.2196,163.85,2.7938,BeY2O4
BC2Y4_Nd2CuO4_Be_Y_S,BC2Y4,Nd2CuO4,Be,Y,S,2,4,8,6.15573,79.7,0.4509,BeY2S4
BC2Y4_Nd2CuO4_Be_Y_Se,BC2Y4,Nd2CuO4,Be,Y,Se,2,4,8,5.57909,62.5,0.0232,BeY2Se4
BC2Y4_Nd2CuO4_Be_Y_Te,BC2Y4,Nd2CuO4,Be,Y,Te,2,4,8,4.89127,55.75,0,BeY2Te4
BC2Y4_Nd2CuO4_Be_La_O,BC2Y4,Nd2CuO4,Be,La,O,2,4,8,7.69541,146.85,2.2904,BeLa2O4
BC2Y4_Nd2CuO4_Be_La_S,BC2Y4,Nd2CuO4,Be,La,S,2,4,8,5.8825,71.35,0.4977,BeLa2S4
BC2Y4_Nd2CuO4_Be_La_Se,BC2Y4,Nd2CuO4,Be,La,Se,2,4,8,5.33878,61.05,0,BeLa2Se4
BC2Y4_Nd2CuO4_Mg_Al_O,BC2Y4,Nd2CuO4,Mg,Al,O,2,4,8,6.2187,172.9,0.8315,MgAl2O4
BC2Y4_Nd2CuO4_Mg_Al_S,BC2Y4,Nd2CuO4,Mg,Al,S,2,4,8,3.99999,69.55,0,MgAl2S4
BC2Y4_Nd2CuO4_Mg_Al_Se,BC2Y4,Nd2CuO4,Mg,Al,Se,2,4,8,3.54045,54.2,0,MgAl2Se4
BC2Y4_Nd2CuO4_Mg_Al_Te,BC2Y4,Nd2CuO4,Mg,Al,Te,2,4,8,3.09723,66.4,0.883,MgAl2Te4
BC2Y4_Nd2CuO4_Mg_Ga_O,BC2Y4,Nd2CuO4,Mg,Ga,O,2,4,8,5.40179,164.75,0.5452,MgGa2O4
BC2Y4_Nd2CuO4_Mg_Ga_S,BC2Y4,Nd2CuO4,Mg,Ga,S,2,4,8,3.62262,59.55,0.8251,MgGa2S4
BC2Y4_Nd2CuO4_Mg_Ga_Se,BC2Y4,Nd2CuO4,Mg,Ga,Se,2,4,8,3.30903,48.75,1.045,MgGa2Se4
BC2Y4_Nd2CuO4_Mg_Ga_Te,BC2Y4,Nd2CuO4,Mg,Ga,Te,2,4,8,2.92932,25.95,0.3072,MgGa2Te4
BC2Y4_Nd2CuO4_Mg_In_O,BC2Y4,Nd2CuO4,Mg,In,O,2,4,8,5.4249,160.9,0.3437,MgIn2O4
BC2Y4_Nd2CuO4_Mg_In_S,BC2Y4,Nd2CuO4,Mg,In,S,2,4,8,3.6423,68.45,0.0611,MgIn2S4