Compound,type,st,a1,a2,a3,n1,n2,n3,Ecoh,BM,bandgap,formula
B3Z2_Zn3P2_Cd_P_None,B3Z2,Zn3P2,Cd,P,None,6,4,0,2.48842,61.3,0.2555,Cd3P2
B3Z2_Zn3P2_Cd_As_None,B3Z2,Zn3P2,Cd,As,None,6,4,0,2.27695,53.45,0.5888,Cd3As2
B3Z2_Zn3P2_Cd_Sb_None,B3Z2,Zn3P2,Cd,Sb,None,6,4,0,2.04063,36.95,1.0109,Cd3Sb2
B3Z2_Zn3P2_Hg_N_None,B3Z2,Zn3P2,Hg,N,None,6,4,0,1.99337,74.4,0,Hg3N2
B3Z2_Zn3P2_Hg_P_None,B3Z2,Zn3P2,Hg,P,None,6,4,0,1.8131,60.1,1.785,Hg3P2
B3Z2_Zn3P2_Hg_As_None,B3Z2,Zn3P2,Hg,As,None,6,4,0,1.67928,44.75,1.9749,Hg3As2
B3Z2_Zn3P2_Hg_Sb_None,B3Z2,Zn3P2,Hg,Sb,None,6,4,0,1.56056,43.95,2.0046,Hg3Sb2
CX3_AuCu3_Al_F_None,CX3,AuCu3,Al,F,None,1,3,0,4.23395,152.45,0.3949,AlF3
CX3_AuCu3_Al_Cl_None,CX3,AuCu3,Al,Cl,None,1,3,0,2.22163,15.9,0,AlCl3
CX3_AuCu3_Al_Br_None,CX3,AuCu3,Al,Br,None,1,3,0,1.90401,61.95,0,AlBr3
CX3_AuCu3_Ga_F_None,CX3,AuCu3,Ga,F,None,1,3,0,3.47807,130.25,0,GaF3
CX3_AuCu3_Ga_Cl_None,CX3,AuCu3,Ga,Cl,None,1,3,0,1.98732,39.25,0,GaCl3
CX3_AuCu3_Ga_Br_None,CX3,AuCu3,Ga,Br,None,1,3,0,1.84363,23.8,0,GaBr3
CX3_AuCu3_Ga_I_None,CX3,AuCu3,Ga,I,None,1,3,0,1.69836,37.1,0,GaI3
CX3_AuCu3_In_F_None,CX3,AuCu3,In,F,None,1,3,0,3.87789,168.15,0,InF3
CX3_AuCu3_In_Cl_None,CX3,AuCu3,In,Cl,None,1,3,0,2.15002,49.95,0,InCl3
CX3_AuCu3_In_Br_None,CX3,AuCu3,In,Br,None,1,3,0,1.87404,18.75,0,InBr3
CX3_AuCu3_In_I_None,CX3,AuCu3,In,I,None,1,3,0,1.71689,24,0,InI3
CX3_AuCu3_Sc_F_None,CX3,AuCu3,Sc,F,None,1,3,0,6.05947,159.45,2.0468,ScF3
CX3_AuCu3_Sc_Cl_None,CX3,AuCu3,Sc,Cl,None,1,3,0,3.8706,36.2,0.1702,ScCl3
CX3_AuCu3_Y_F_None,CX3,AuCu3,Y,F,None,1,3,0,6.63979,136.9,3.9841,YF3
CX3_AuCu3_Y_Cl_None,CX3,AuCu3,Y,Cl,None,1,3,0,4.52641,77.5,1.2807,YCl3
CX3_AuCu3_Y_Br_None,CX3,AuCu3,Y,Br,None,1,3,0,3.9029,86.3,0.6634,YBr3
CX3_AuCu3_Y_I_None,CX3,AuCu3,Y,I,None,1,3,0,3.22308,21.3,0.2409,YI3
CX3_AuCu3_La_F_None,CX3,AuCu3,La,F,None,1,3,0,6.46719,122.9,4.3736,LaF3
CX3_AuCu3_La_Cl_None,CX3,AuCu3,La,Cl,None,1,3,0,4.56294,73.45,1.7748,LaCl3
CX3_AuCu3_La_Br_None,CX3,AuCu3,La,Br,None,1,3,0,3.96449,48.35,1.0976,LaBr3
CX3_AuCu3_La_I_None,CX3,AuCu3,La,I,None,1,3,0,3.30114,19.05,0.5394,LaI3
CX3_BClI3_Al_F_None,CX3,BClI3,Al,F,None,2,6,0,5.4184,112.35,5.6107,AlF3
CX3_BClI3_Al_Cl_None,CX3,BClI3,Al,Cl,None,2,6,0,3.70632,37.55,4.9817,AlCl3
CX3_BClI3_Al_Br_None,CX3,BClI3,Al,Br,None,2,6,0,3.18085,19.85,4.1313,AlBr3
CX3_BClI3_Al_I_None,CX3,BClI3,Al,I,None,2,6,0,2.66022,18.1,3.5905,AlI3
CX3_BClI3_Ga_F_None,CX3,BClI3,Ga,F,None,2,6,0,4.44139,130.7,3.5763,GaF3
CX3_BClI3_Ga_Cl_None,CX3,BClI3,Ga,Cl,None,2,6,0,3.13561,28.65,4.257,GaCl3
CX3_BClI3_Ga_Br_None,CX3,BClI3,Ga,Br,None,2,6,0,2.72538,16.3,3.553,GaBr3
CX3_BClI3_Ga_I_None,CX3,BClI3,Ga,I,None,2,6,0,2.31166,10.45,2.9295,GaI3
CX3_BClI3_In_F_None,CX3,BClI3,In,F,None,2,6,0,4.50605,148.7,3.3317,InF3
CX3_BClI3_In_Cl_None,CX3,BClI3,In,Cl,None,2,6,0,2.93879,30.95,2.8571,InCl3
CX3_BClI3_In_Br_None,CX3,BClI3,In,Br,None,2,6,0,2.5746,21,2.7884,InBr3
CX3_BClI3_In_I_None,CX3,BClI3,In,I,None,2,6,0,2.19512,10.6,2.5498,InI3
CX3_BClI3_Sc_F_None,CX3,BClI3,Sc,F,None,2,6,0,6.78293,143.75,6.0134,ScF3
CX3_BClI3_Sc_Cl_None,CX3,BClI3,Sc,Cl,None,2,6,0,4.9915,37.9,3.1104,ScCl3
CX3_BClI3_Sc_Br_None,CX3,BClI3,Sc,Br,None,2,6,0,4.17803,48.7,2.1729,ScBr3
CX3_BClI3_Sc_I_None,CX3,BClI3,Sc,I,None,2,6,0,3.62252,22.5,1.9858,ScI3
CX3_BClI3_Y_F_None,CX3,BClI3,Y,F,None,2,6,0,7.10943,112.7,8.1307,YF3
CX3_BClI3_Y_Cl_None,CX3,BClI3,Y,Cl,None,2,6,0,5.23932,60.95,3.8471,YCl3
CX3_BClI3_Y_Br_None,CX3,BClI3,Y,Br,None,2,6,0,4.71638,35.7,3.252,YBr3
CX3_BClI3_Y_I_None,CX3,BClI3,Y,I,None,2,6,0,4.1489,24.05,2.2326,YI3
CX3_BClI3_La_F_None,CX3,BClI3,La,F,None,2,6,0,6.79528,94.5,6.4612,LaF3
CX3_BClI3_La_Cl_None,CX3,BClI3,La,Cl,None,2,6,0,5.05638,47.75,3.7488,LaCl3
CX3_BClI3_La_Br_None,CX3,BClI3,La,Br,None,2,6,0,4.51491,63.95,2.9689,LaBr3
CX3_BClI3_La_I_None,CX3,BClI3,La,I,None,2,6,0,3.92675,30.4,2.1371,LaI3
CX3_ReO3_Al_F_None,CX3,ReO3,Al,F,None,1,3,0,5.89208,120.6,8.3378,AlF3
CX3_ReO3_Al_Cl_None,CX3,ReO3,Al,Cl,None,1,3,0,3.54441,65.9,1.449,AlCl3
CX3_ReO3_Al_Br_None,CX3,ReO3,Al,Br,None,1,3,0,2.93224,67.25,0,AlBr3
CX3_ReO3_Al_I_None,CX3,ReO3,Al,I,None,1,3,0,2.38614,33.45,0,AlI3
CX3_ReO3_Ga_F_None,CX3,ReO3,Ga,F,None,1,3,0,4.76311,121.7,4.5786,GaF3
CX3_ReO3_Ga_Cl_None,CX3,ReO3,Ga,Cl,None,1,3,0,2.89916,58.5,0,GaCl3
CX3_ReO3_Ga_Br_None,CX3,ReO3,Ga,Br,None,1,3,0,2.4447,32.9,0,GaBr3
CX3_ReO3_Ga_I_None,CX3,ReO3,Ga,I,None,1,3,0,2.04293,29.8,0,GaI3
CX3_ReO3_In_F_None,CX3,ReO3,In,F,None,1,3,0,4.55233,82,3.8274,InF3
CX3_ReO3_In_Cl_None,CX3,ReO3,In,Cl,None,1,3,0,2.93626,39.85,0.0164,InCl3
CX3_ReO3_In_Br_None,CX3,ReO3,In,Br,None,1,3,0,2.49059,30.2,0,InBr3
CX3_ReO3_Sc_F_None,CX3,ReO3,Sc,F,None,1,3,0,6.93414,107.1,6.3811,ScF3
CX3_ReO3_Sc_Cl_None,CX3,ReO3,Sc,Cl,None,1,3,0,4.9394,45.85,3.0312,ScCl3
CX3_ReO3_Y_F_None,CX3,ReO3,Y,F,None,1,3,0,7.10065,72.25,7.6157,YF3
CX3_ReO3_Y_Cl_None,CX3,ReO3,Y,Cl,None,1,3,0,5.23171,45.75,4.4077,YCl3
CX3_ReO3_Y_Br_None,CX3,ReO3,Y,Br,None,1,3,0,4.65941,41,3.5518,YBr3
CX3_ReO3_Y_I_None,CX3,ReO3,Y,I,None,1,3,0,4.05382,21.25,2.5549,YI3
CX3_ReO3_La_F_None,CX3,ReO3,La,F,None,1,3,0,6.73128,56.2,6.7974,LaF3
CX3_ReO3_La_Cl_None,CX3,ReO3,La,Cl,None,1,3,0,4.973,38.3,4.6585,LaCl3
CX3_ReO3_La_Br_None,CX3,ReO3,La,Br,None,1,3,0,4.42807,20.2,3.95,LaBr3
CX3_ScF3_Al_F_None,CX3,ScF3,Al,F,None,1,3,0,5.89202,122,8.35,AlF3
CX3_ScF3_Al_Cl_None,CX3,ScF3,Al,Cl,None,1,3,0,3.54439,51.85,1.416,AlCl3
CX3_ScF3_Al_Br_None,CX3,ScF3,Al,Br,None,1,3,0,2.93208,36.35,0.4725,AlBr3
CX3_ScF3_Al_I_None,CX3,ScF3,Al,I,None,1,3,0,2.39298,25.9,0.1818,AlI3
CX3_ScF3_Ga_F_None,CX3,ScF3,Ga,F,None,1,3,0,4.76309,121.85,4.5696,GaF3
CX3_ScF3_Ga_Cl_None,CX3,ScF3,Ga,Cl,None,1,3,0,2.89854,42.9,0.4944,GaCl3
CX3_ScF3_Ga_Br_None,CX3,ScF3,Ga,Br,None,1,3,0,2.22624,22.4,2.9433,GaBr3
CX3_ScF3_Ga_I_None,CX3,ScF3,Ga,I,None,1,3,0,2.04275,13.95,2.7645,GaI3
CX3_ScF3_In_F_None,CX3,ScF3,In,F,None,1,3,0,4.55232,92.2,3.8224,InF3
CX3_ScF3_In_Cl_None,CX3,ScF3,In,Cl,None,1,3,0,2.9406,48.7,1.1073,InCl3
CX3_ScF3_In_Br_None,CX3,ScF3,In,Br,None,1,3,0,2.50978,38.35,0.4993,InBr3
CX3_ScF3_Sc_F_None,CX3,ScF3,Sc,F,None,1,3,0,6.93387,104.2,6.3682,ScF3
CX3_ScF3_Sc_Cl_None,CX3,ScF3,Sc,Cl,None,1,3,0,4.86917,45.25,2.9315,ScCl3
CX3_ScF3_Sc_Br_None,CX3,ScF3,Sc,Br,None,1,3,0,4.30057,43.7,2.2348,ScBr3
CX3_ScF3_Sc_I_None,CX3,ScF3,Sc,I,None,1,3,0,3.71144,33.2,1.5731,ScI3
CX3_ScF3_Y_F_None,CX3,ScF3,Y,F,None,1,3,0,7.10061,73.45,7.6061,YF3
CX3_ScF3_Y_Cl_None,CX3,ScF3,Y,Cl,None,1,3,0,5.19086,47.4,4.4376,YCl3
CX3_ScF3_Y_Br_None,CX3,ScF3,Y,Br,None,1,3,0,4.62178,51,3.5268,YBr3
CX3_ScF3_Y_I_None,CX3,ScF3,Y,I,None,1,3,0,4.01496,27.9,2.4939,YI3
CX3_ScF3_La_F_None,CX3,ScF3,La,F,None,1,3,0,6.73064,58.15,6.7677,LaF3
CX3_ScF3_La_Cl_None,CX3,ScF3,La,Cl,None,1,3,0,4.95442,38.7,4.0681,LaCl3
CX3_ScF3_La_Br_None,CX3,ScF3,La,Br,None,1,3,0,4.41241,38.45,3.3686,LaBr3
C2Y3_Al2O3_Al_O_None,C2Y3,Al2O3,Al,O,None,4,6,0,7.54958,235.45,5.9391,Al2O3
C2Y3_Al2O3_Al_S_None,C2Y3,Al2O3,Al,S,None,4,6,0,5.01837,99.3,2.9077,Al2S3
C2Y3_Al2O3_Al_Se_None,C2Y3,Al2O3,Al,Se,None,4,6,0,4.39759,76.65,1.1584,Al2Se3
C2Y3_Al2O3_Ga_O_None,C2Y3,Al2O3,Ga,O,None,4,6,0,6.07571,224.65,2.6163,Ga2O3
C2Y3_Al2O3_Ga_S_None,C2Y3,Al2O3,Ga,S,None,4,6,0,4.16994,89.35,0.4854,Ga2S3
C2Y3_Al2O3_Ga_Se_None,C2Y3,Al2O3,Ga,Se,None,4,6,0,3.6878,42.1,1.5835,Ga2Se3
C2Y3_Al2O3_Ga_Te_None,C2Y3,Al2O3,Ga,Te,None,4,6,0,2.87495,19,3.0781,Ga2Te3
C2Y3_Al2O3_In_O_None,C2Y3,Al2O3,In,O,None,4,6,0,5.64192,179.15,1.0524,In2O3
C2Y3_Al2O3_In_S_None,C2Y3,Al2O3,In,S,None,4,6,0,4.05391,74.85,0.4117,In2S3
C2Y3_Al2O3_In_Se_None,C2Y3,Al2O3,In,Se,None,4,6,0,3.45026,26.85,1.2335,In2Se3
C2Y3_Al2O3_Sc_O_None,C2Y3,Al2O3,Sc,O,None,4,6,0,9.05057,192.4,4.3265,Sc2O3
C2Y3_Al2O3_Sc_S_None,C2Y3,Al2O3,Sc,S,None,4,6,0,6.84641,90.1,1.5752,Sc2S3
C2Y3_Al2O3_Sc_Se_None,C2Y3,Al2O3,Sc,Se,None,4,6,0,6.26241,70.8,1.0677,Sc2Se3
C2Y3_Al2O3_Sc_Te_None,C2Y3,Al2O3,Sc,Te,None,4,6,0,5.57653,61.45,0.274,Sc2Te3
C2Y3_Al2O3_Y_O_None,C2Y3,Al2O3,Y,O,None,4,6,0,9.10232,144.75,4.5562,Y2O3
C2Y3_Al2O3_Y_S_None,C2Y3,Al2O3,Y,S,None,4,6,0,7.13277,73.05,2.7228,Y2S3
C2Y3_Al2O3_Y_Se_None,C2Y3,Al2O3,Y,Se,None,4,6,0,6.55509,61.75,2.1538,Y2Se3
C2Y3_Al2O3_Y_Te_None,C2Y3,Al2O3,Y,Te,None,4,6,0,5.86017,51.45,1.2234,Y2Te3
C2Y3_Al2O3_La_O_None,C2Y3,Al2O3,La,O,None,4,6,0,8.40547,121.3,4.1035,La2O3
C2Y3_Al2O3_La_S_None,C2Y3,Al2O3,La,S,None,4,6,0,6.6171,62.3,2.8655,La2S3
C2Y3_Al2O3_La_Se_None,C2Y3,Al2O3,La,Se,None,4,6,0,6.07616,52.5,2.446,La2Se3
C2Y3_In2Se3_Al_O_None,C2Y3,In2Se3,Al,O,None,2,3,0,7.35853,178.1,4.9348,Al2O3
C2Y3_In2Se3_Al_S_None,C2Y3,In2Se3,Al,S,None,2,3,0,4.99915,70.8,3.8243,Al2S3
C2Y3_In2Se3_Al_Se_None,C2Y3,In2Se3,Al,Se,None,2,3,0,3.73617,61.65,0.2674,Al2Se3
C2Y3_In2Se3_Al_Te_None,C2Y3,In2Se3,Al,Te,None,2,3,0,2.91253,51.4,1.2868,Al2Te3
C2Y3_In2Se3_Ga_O_None,C2Y3,In2Se3,Ga,O,None,2,3,0,5.92512,181.5,2.2635,Ga2O3
C2Y3_In2Se3_Ga_S_None,C2Y3,In2Se3,Ga,S,None,2,3,0,3.22701,49.15,0,Ga2S3
C2Y3_In2Se3_Ga_Se_None,C2Y3,In2Se3,Ga,Se,None,2,3,0,3.00555,40,1.6035,Ga2Se3
C2Y3_In2Se3_Ga_Te_None,C2Y3,In2Se3,Ga,Te,None,2,3,0,2.73853,30.6,1.3235,Ga2Te3
C2Y3_In2Se3_In_O_None,C2Y3,In2Se3,In,O,None,2,3,0,5.49474,167.55,0.4763,In2O3
C2Y3_In2Se3_In_S_None,C2Y3,In2Se3,In,S,None,2,3,0,4.04512,71.55,1.8468,In2S3
C2Y3_In2Se3_In_Se_None,C2Y3,In2Se3,In,Se,None,2,3,0,3.26559,50.25,0,In2Se3
C2Y3_In2Se3_In_Te_None,C2Y3,In2Se3,In,Te,None,2,3,0,2.738,22.35,1.3305,In2Te3
C2Y3_In2Se3_Sc_O_None,C2Y3,In2Se3,Sc,O,None,2,3,0,8.95651,196,3.6772,Sc2O3
C2Y3_In2Se3_Sc_S_None,C2Y3,In2Se3,Sc,S,None,2,3,0,6.8295,45.15,2.3187,Sc2S3
C2Y3_In2Se3_Sc_Se_None,C2Y3,In2Se3,Sc,Se,None,2,3,0,6.25921,50,1.7959,Sc2Se3
C2Y3_In2Se3_Sc_Te_None,C2Y3,In2Se3,Sc,Te,None,2,3,0,5.55892,53.15,1.0102,Sc2Te3
C2Y3_In2Se3_Y_O_None,C2Y3,In2Se3,Y,O,None,2,3,0,9.0831,153.65,4.3375,Y2O3
C2Y3_In2Se3_Y_S_None,C2Y3,In2Se3,Y,S,None,2,3,0,7.06959,43.75,3.2483,Y2S3
C2Y3_In2Se3_Y_Se_None,C2Y3,In2Se3,Y,Se,None,2,3,0,6.51991,35.85,2.6358,Y2Se3
C2Y3_In2Se3_Y_Te_None,C2Y3,In2Se3,Y,Te,None,2,3,0,5.84068,46.5,1.929,Y2Te3
C2Y3_In2Se3_La_O_None,C2Y3,In2Se3,La,O,None,2,3,0,8.43918,130.65,4.3301,La2O3
C2Y3_In2Se3_La_S_None,C2Y3,In2Se3,La,S,None,2,3,0,6.53702,51.45,3.1591,La2S3
C2Y3_In2Se3_La_Se_None,C2Y3,In2Se3,La,Se,None,2,3,0,6.01937,41.35,2.7648,La2Se3
C2Y3_In2Se3_La_Te_None,C2Y3,In2Se3,La,Te,None,2,3,0,5.37088,41.4,2.0678,La2Te3
C2Y3_Nb2Se3_Al_O_None,C2Y3,Nb2Se3,Al,O,None,4,6,0,7.2681,101.7,3.7757,Al2O3
C2Y3_Nb2Se3_Al_S_None,C2Y3,Nb2Se3,Al,S,None,4,6,0,5.02586,53.55,2.3289,Al2S3
C2Y3_Nb2Se3_Al_Se_None,C2Y3,Nb2Se3,Al,Se,None,4,6,0,3.91267,59.8,1.303,Al2Se3
C2Y3_Nb2Se3_Al_Te_None,C2Y3,Nb2Se3,Al,Te,None,4,6,0,3.43866,54.15,0.9683,Al2Te3
C2Y3_Nb2Se3_Ga_O_None,C2Y3,Nb2Se3,Ga,O,None,4,6,0,6.00336,183.7,1.5132,Ga2O3
C2Y3_Nb2Se3_Ga_S_None,C2Y3,Nb2Se3,Ga,S,None,4,6,0,4.0385,61.55,1.8097,Ga2S3
C2Y3_Nb2Se3_Ga_Se_None,C2Y3,Nb2Se3,Ga,Se,None,4,6,0,3.64431,51.7,0.932,Ga2Se3
C2Y3_Nb2Se3_Ga_Te_None,C2Y3,Nb2Se3,Ga,Te,None,4,6,0,3.14496,46.5,0.9128,Ga2Te3
C2Y3_Nb2Se3_In_O_None,C2Y3,Nb2Se3,In,O,None,4,6,0,5.50344,158.75,0.2826,In2O3
C2Y3_Nb2Se3_In_S_None,C2Y3,Nb2Se3,In,S,None,4,6,0,3.76314,58.2,1.5548,In2S3
C2Y3_Nb2Se3_In_Se_None,C2Y3,Nb2Se3,In,Se,None,4,6,0,3.42965,50.45,1.2958,In2Se3
C2Y3_Nb2Se3_In_Te_None,C2Y3,Nb2Se3,In,Te,None,4,6,0,3.05255,41.85,1.4902,In2Te3
C2Y3_Nb2Se3_Sc_O_None,C2Y3,Nb2Se3,Sc,O,None,4,6,0,8.93888,174.5,3.7596,Sc2O3
C2Y3_Nb2Se3_Sc_S_None,C2Y3,Nb2Se3,Sc,S,None,4,6,0,6.84911,84,1.4258,Sc2S3
C2Y3_Nb2Se3_Sc_Se_None,C2Y3,Nb2Se3,Sc,Se,None,4,6,0,6.28325,71.25,0.9682,Sc2Se3
C2Y3_Nb2Se3_Y_O_None,C2Y3,Nb2Se3,Y,O,None,4,6,0,8.99008,153.3,2.8853,Y2O3
C2Y3_Nb2Se3_Y_S_None,C2Y3,Nb2Se3,Y,S,None,4,6,0,7.09247,68.45,2.0463,Y2S3
C2Y3_Nb2Se3_Y_Se_None,C2Y3,Nb2Se3,Y,Se,None,4,6,0,6.53963,57.35,1.6084,Y2Se3
C2Y3_Nb2Se3_Y_Te_None,C2Y3,Nb2Se3,Y,Te,None,4,6,0,5.85399,57.95,0.6657,Y2Te3
C2Y3_Nb2Se3_La_O_None,C2Y3,Nb2Se3,La,O,None,4,6,0,8.31982,125.55,2.7567,La2O3
ABX3_BaNiO3_Li_Be_F,ABX3,BaNiO3,Li,Be,F,2,2,6,5.05618,92.6,7.0499,LiBeF3
ABX3_BaNiO3_Li_Be_Cl,ABX3,BaNiO3,Li,Be,Cl,2,2,6,3.46145,21.7,4.1689,LiBeCl3
ABX3_BaNiO3_Li_Be_Br,ABX3,BaNiO3,Li,Be,Br,2,2,6,2.98297,36.4,2.9588,LiBeBr3
ABX3_BaNiO3_Li_Be_I,ABX3,BaNiO3,Li,Be,I,2,2,6,2.46655,24.75,1.5544,LiBeI3
ABX3_BaNiO3_Li_Mg_F,ABX3,BaNiO3,Li,Mg,F,2,2,6,4.76558,62.6,5.6139,LiMgF3
ABX3_BaNiO3_Li_Mg_Cl,ABX3,BaNiO3,Li,Mg,Cl,2,2,6,3.4144,32.25,3.875,LiMgCl3
ABX3_BaNiO3_Li_Mg_Br,ABX3,BaNiO3,Li,Mg,Br,2,2,6,2.97174,30.85,2.9048,LiMgBr3
ABX3_BaNiO3_Li_Ca_F,ABX3,BaNiO3,Li,Ca,F,2,2,6,4.88047,48.5,4.518,LiCaF3
ABX3_BaNiO3_Li_Ca_Cl,ABX3,BaNiO3,Li,Ca,Cl,2,2,6,3.72939,27.55,3.5253,LiCaCl3
ABX3_BaNiO3_Li_Ca_Br,ABX3,BaNiO3,Li,Ca,Br,2,2,6,2.64833,22.95,0,LiCaBr3
ABX3_BaNiO3_Li_Ca_I,ABX3,BaNiO3,Li,Ca,I,2,2,6,2.21084,17.4,0,LiCaI3
ABX3_BaNiO3_Li_Sr_F,ABX3,BaNiO3,Li,Sr,F,2,2,6,4.71177,40.8,3.9134,LiSrF3
ABX3_BaNiO3_Li_Sr_Br,ABX3,BaNiO3,Li,Sr,Br,2,2,6,2.80546,21.8,0,LiSrBr3
ABX3_BaNiO3_Li_Sr_I,ABX3,BaNiO3,Li,Sr,I,2,2,6,2.33703,16.05,0,LiSrI3
ABX3_BaNiO3_Li_Ba_F,ABX3,BaNiO3,Li,Ba,F,2,2,6,4.63942,35.5,3.4594,LiBaF3
ABX3_BaNiO3_Li_Ba_Cl,ABX3,BaNiO3,Li,Ba,Cl,2,2,6,3.47501,24.95,1.0249,LiBaCl3
ABX3_BaNiO3_Li_Ba_Br,ABX3,BaNiO3,Li,Ba,Br,2,2,6,3.05819,19.85,0.4259,LiBaBr3
ABX3_BaNiO3_Li_Zn_F,ABX3,BaNiO3,Li,Zn,F,2,2,6,3.94541,74.65,3.7136,LiZnF3
ABX3_BaNiO3_Li_Zn_Cl,ABX3,BaNiO3,Li,Zn,Cl,2,2,6,2.85351,35.8,3.3853,LiZnCl3
ABX3_BaNiO3_Li_Zn_I,ABX3,BaNiO3,Li,Zn,I,2,2,6,1.62458,10.75,0.0001,LiZnI3
ABX3_BaNiO3_Li_Cd_F,ABX3,BaNiO3,Li,Cd,F,2,2,6,3.68161,61.15,2.9777,LiCdF3
ABX3_BaNiO3_Li_Cd_Br,ABX3,BaNiO3,Li,Cd,Br,2,2,6,2.11472,21.1,0.0832,LiCdBr3
ABX3_BaNiO3_Li_Cd_I,ABX3,BaNiO3,Li,Cd,I,2,2,6,1.84287,12.15,0.576,LiCdI3
ABX3_BaNiO3_Li_Hg_F,ABX3,BaNiO3,Li,Hg,F,2,2,6,3.11563,53.35,1.7767,LiHgF3
ABX3_BaNiO3_Li_Hg_Br,ABX3,BaNiO3,Li,Hg,Br,2,2,6,2.00555,18.45,0.013,LiHgBr3
ABX3_BaNiO3_Li_Hg_I,ABX3,BaNiO3,Li,Hg,I,2,2,6,1.77232,23.3,0.0618,LiHgI3
ABX3_BaNiO3_Na_Be_F,ABX3,BaNiO3,Na,Be,F,2,2,6,5.02382,81.7,6.8955,NaBeF3
ABX3_BaNiO3_Na_Be_Cl,ABX3,BaNiO3,Na,Be,Cl,2,2,6,3.4665,45.9,4.3175,NaBeCl3
ABX3_BaNiO3_Na_Be_Br,ABX3,BaNiO3,Na,Be,Br,2,2,6,2.99202,48.55,3.0871,NaBeBr3
ABX3_BaNiO3_Na_Be_I,ABX3,BaNiO3,Na,Be,I,2,2,6,2.4809,24.05,1.7734,NaBeI3
ABX3_BaNiO3_Na_Mg_F,ABX3,BaNiO3,Na,Mg,F,2,2,6,4.76065,62.05,5.6619,NaMgF3
ABX3_BaNiO3_Na_Mg_Cl,ABX3,BaNiO3,Na,Mg,Cl,2,2,6,3.43156,35.6,4.0189,NaMgCl3
ABX3_BaNiO3_Na_Mg_Br,ABX3,BaNiO3,Na,Mg,Br,2,2,6,2.99122,21.05,3.0224,NaMgBr3
ABX3_BaNiO3_Na_Ca_F,ABX3,BaNiO3,Na,Ca,F,2,2,6,4.88885,45.9,4.7082,NaCaF3
ABX3_BaNiO3_Na_Ca_Cl,ABX3,BaNiO3,Na,Ca,Cl,2,2,6,3.75226,21.6,3.6803,NaCaCl3
ABX3_BaNiO3_Na_Ca_Br,ABX3,BaNiO3,Na,Ca,Br,2,2,6,2.30922,19.5,0,NaCaBr3
ABX3_BaNiO3_Na_Ca_I,ABX3,BaNiO3,Na,Ca,I,2,2,6,1.99657,11.65,0,NaCaI3
ABX3_BaNiO3_Na_Sr_F,ABX3,BaNiO3,Na,Sr,F,2,2,6,4.72318,40.85,4.073,NaSrF3
ABX3_BaNiO3_Na_Sr_Br,ABX3,BaNiO3,Na,Sr,Br,2,2,6,2.44965,12.75,0,NaSrBr3
ABX3_BaNiO3_Na_Ba_F,ABX3,BaNiO3,Na,Ba,F,2,2,6,4.65185,33.9,3.6147,NaBaF3
ABX3_BaNiO3_Na_Ba_Cl,ABX3,BaNiO3,Na,Ba,Cl,2,2,6,3.05568,20.25,0.2504,NaBaCl3
ABX3_BaNiO3_Na_Ba_Br,ABX3,BaNiO3,Na,Ba,Br,2,2,6,2.69713,16.2,0,NaBaBr3
ABX3_BaNiO3_Na_Zn_F,ABX3,BaNiO3,Na,Zn,F,2,2,6,3.94541,66.8,3.8253,NaZnF3
ABX3_BaNiO3_Na_Zn_Cl,ABX3,BaNiO3,Na,Zn,Cl,2,2,6,2.86959,43.55,3.4762,NaZnCl3
ABX3_BaNiO3_Na_Zn_I,ABX3,BaNiO3,Na,Zn,I,2,2,6,1.54282,9.15,0,NaZnI3
ABX3_BaNiO3_Na_Cd_F,ABX3,BaNiO3,Na,Cd,F,2,2,6,3.6893,57.3,3.1202,NaCdF3
ABX3_BaNiO3_Na_Cd_Br,ABX3,BaNiO3,Na,Cd,Br,2,2,6,1.95806,15.25,0.0399,NaCdBr3
ABX3_BaNiO3_Na_Cd_I,ABX3,BaNiO3,Na,Cd,I,2,2,6,1.7193,10.55,0.5098,NaCdI3
ABX3_BaNiO3_Na_Hg_F,ABX3,BaNiO3,Na,Hg,F,2,2,6,3.11922,51,1.8712,NaHgF3
ABX3_BaNiO3_Na_Hg_Br,ABX3,BaNiO3,Na,Hg,Br,2,2,6,1.87567,18.5,0.0386,NaHgBr3
ABX3_BaNiO3_Na_Hg_I,ABX3,BaNiO3,Na,Hg,I,2,2,6,1.65684,11.9,0.2024,NaHgI3
ABX3_BaNiO3_K_Be_F,ABX3,BaNiO3,K,Be,F,2,2,6,5.05828,72.15,7.3409,KBeF3
ABX3_BaNiO3_K_Be_Cl,ABX3,BaNiO3,K,Be,Cl,2,2,6,3.5689,41.05,5.0598,KBeCl3
ABX3_BaNiO3_K_Be_Br,ABX3,BaNiO3,K,Be,Br,2,2,6,3.10716,37.3,3.8198,KBeBr3
ABX3_BaNiO3_K_Be_I,ABX3,BaNiO3,K,Be,I,2,2,6,2.60812,24.8,2.0846,KBeI3
ABX3_BaNiO3_K_Mg_F,ABX3,BaNiO3,K,Mg,F,2,2,6,4.84798,53,6.4341,KMgF3
ABX3_BaNiO3_K_Mg_Cl,ABX3,BaNiO3,K,Mg,Cl,2,2,6,3.55785,24.85,4.8496,KMgCl3
ABX3_BaNiO3_K_Mg_Br,ABX3,BaNiO3,K,Mg,Br,2,2,6,3.12473,26.7,3.7646,KMgBr3
ABX3_BaNiO3_K_Ca_F,ABX3,BaNiO3,K,Ca,F,2,2,6,5.00742,40.55,5.7489,KCaF3
ABX3_BaNiO3_K_Ca_Cl,ABX3,BaNiO3,K,Ca,Cl,2,2,6,3.89428,25.85,4.5644,KCaCl3
ABX3_BaNiO3_K_Ca_Br,ABX3,BaNiO3,K,Ca,Br,2,2,6,2.1721,14.65,0,KCaBr3
ABX3_BaNiO3_K_Ca_I,ABX3,BaNiO3,K,Ca,I,2,2,6,1.93608,10.35,0,KCaI3
ABX3_BaNiO3_K_Sr_F,ABX3,BaNiO3,K,Sr,F,2,2,6,4.85128,35.5,5.0973,KSrF3
ABX3_BaNiO3_K_Sr_Br,ABX3,BaNiO3,K,Sr,Br,2,2,6,2.26071,12.75,0,KSrBr3
ABX3_BaNiO3_K_Sr_I,ABX3,BaNiO3,K,Sr,I,2,2,6,1.96167,9.75,0,KSrI3
ABX3_BaNiO3_K_Ba_F,ABX3,BaNiO3,K,Ba,F,2,2,6,4.7846,30.75,4.5587,KBaF3
ABX3_BaNiO3_K_Ba_Cl,ABX3,BaNiO3,K,Ba,Cl,2,2,6,2.78836,13.15,0,KBaCl3
ABX3_BaNiO3_K_Ba_Br,ABX3,BaNiO3,K,Ba,Br,2,2,6,2.48323,10.4,0,KBaBr3
ABX3_BaNiO3_K_Zn_F,ABX3,BaNiO3,K,Zn,F,2,2,6,4.03874,56.45,4.4906,KZnF3
ABX3_BaNiO3_K_Zn_Cl,ABX3,BaNiO3,K,Zn,Cl,2,2,6,2.99269,35.35,3.9752,KZnCl3
ABX3_BaNiO3_K_Zn_I,ABX3,BaNiO3,K,Zn,I,2,2,6,1.72481,8.8,0.545,KZnI3
ABX3_BaNiO3_K_Cd_F,ABX3,BaNiO3,K,Cd,F,2,2,6,3.80387,53.8,3.7111,KCdF3
ABX3_BaNiO3_K_Cd_Br,ABX3,BaNiO3,K,Cd,Br,2,2,6,1.96966,11.25,0.0368,KCdBr3
ABX3_BaNiO3_K_Cd_I,ABX3,BaNiO3,K,Cd,I,2,2,6,1.75183,8.1,0.3648,KCdI3
ABX3_BaNiO3_K_Hg_F,ABX3,BaNiO3,K,Hg,F,2,2,6,3.2323,42.35,2.2115,KHgF3
ABX3_BaNiO3_K_Hg_Br,ABX3,BaNiO3,K,Hg,Br,2,2,6,1.90484,11.7,0.0271,KHgBr3
ABX3_BaNiO3_K_Hg_I,ABX3,BaNiO3,K,Hg,I,2,2,6,1.69446,7.55,0.0619,KHgI3
ABX3_BaNiO3_Rb_Be_F,ABX3,BaNiO3,Rb,Be,F,2,2,6,5.02678,66.55,7.0969,RbBeF3
ABX3_BaNiO3_Rb_Be_Cl,ABX3,BaNiO3,Rb,Be,Cl,2,2,6,3.56627,38.3,5.0956,RbBeCl3
ABX3_BaNiO3_Rb_Be_Br,ABX3,BaNiO3,Rb,Be,Br,2,2,6,3.11038,35.25,3.8608,RbBeBr3
ABX3_BaNiO3_Rb_Be_I,ABX3,BaNiO3,Rb,Be,I,2,2,6,2.61872,21.85,2.2269,RbBeI3
ABX3_BaNiO3_Rb_Mg_F,ABX3,BaNiO3,Rb,Mg,F,2,2,6,4.83852,48.05,6.431,RbMgF3
ABX3_BaNiO3_Rb_Mg_Cl,ABX3,BaNiO3,Rb,Mg,Cl,2,2,6,3.56424,30,4.9362,RbMgCl3
ABX3_BaNiO3_Rb_Mg_Br,ABX3,BaNiO3,Rb,Mg,Br,2,2,6,3.13587,28.05,3.8682,RbMgBr3
ABX3_BaNiO3_Rb_Mg_I,ABX3,BaNiO3,Rb,Mg,I,2,2,6,1.81905,6.85,0.373,RbMgI3
ABX3_BaNiO3_Rb_Ca_F,ABX3,BaNiO3,Rb,Ca,F,2,2,6,5.01352,37.85,5.8965,RbCaF3
ABX3_BaNiO3_Rb_Ca_Cl,ABX3,BaNiO3,Rb,Ca,Cl,2,2,6,3.90949,29.1,4.7179,RbCaCl3
ABX3_BaNiO3_Rb_Ca_Br,ABX3,BaNiO3,Rb,Ca,Br,2,2,6,2.1043,10.65,0,RbCaBr3
ABX3_BaNiO3_Rb_Ca_I,ABX3,BaNiO3,Rb,Ca,I,2,2,6,1.89251,7.65,0,RbCaI3
ABX3_BaNiO3_Rb_Sr_F,ABX3,BaNiO3,Rb,Sr,F,2,2,6,4.86338,33.7,5.2855,RbSrF3
ABX3_BaNiO3_Rb_Sr_Br,ABX3,BaNiO3,Rb,Sr,Br,2,2,6,2.18258,10.65,0,RbSrBr3
ABX3_BaNiO3_Rb_Sr_I,ABX3,BaNiO3,Rb,Sr,I,2,2,6,1.90548,8.2,0,RbSrI3
ABX3_BaNiO3_Rb_Ba_F,ABX3,BaNiO3,Rb,Ba,F,2,2,6,4.80029,30.2,4.7728,RbBaF3
ABX3_BaNiO3_Rb_Ba_Cl,ABX3,BaNiO3,Rb,Ba,Cl,2,2,6,2.67783,9.7,0,RbBaCl3
ABX3_BaNiO3_Rb_Ba_Br,ABX3,BaNiO3,Rb,Ba,Br,2,2,6,2.39272,13.5,0,RbBaBr3
ABX3_BaNiO3_Rb_Zn_F,ABX3,BaNiO3,Rb,Zn,F,2,2,6,4.03086,57.85,4.5896,RbZnF3
ABX3_BaNiO3_Rb_Zn_Cl,ABX3,BaNiO3,Rb,Zn,Cl,2,2,6,2.9984,30.45,4.0488,RbZnCl3
ABX3_BaNiO3_Rb_Zn_I,ABX3,BaNiO3,Rb,Zn,I,2,2,6,1.71695,8.65,0.5077,RbZnI3
ABX3_BaNiO3_Rb_Cd_F,ABX3,BaNiO3,Rb,Cd,F,2,2,6,3.80786,49.05,3.846,RbCdF3
ABX3_BaNiO3_Rb_Cd_Br,ABX3,BaNiO3,Rb,Cd,Br,2,2,6,1.95325,11.65,0.0227,RbCdBr3
ABX3_BaNiO3_Rb_Cd_I,ABX3,BaNiO3,Rb,Cd,I,2,2,6,1.74347,7.8,0.5999,RbCdI3
ABX3_BaNiO3_Rb_Hg_F,ABX3,BaNiO3,Rb,Hg,F,2,2,6,3.23703,45.35,2.2933,RbHgF3
ABX3_BaNiO3_Rb_Hg_Br,ABX3,BaNiO3,Rb,Hg,Br,2,2,6,1.89148,9.5,0.1963,RbHgBr3
ABX3_BaNiO3_Rb_Hg_I,ABX3,BaNiO3,Rb,Hg,I,2,2,6,1.68744,9,0.0483,RbHgI3
ABX3_BaNiO3_Cs_Be_F,ABX3,BaNiO3,Cs,Be,F,2,2,6,5.00764,58.15,6.9825,CsBeF3
ABX3_BaNiO3_Cs_Be_Cl,ABX3,BaNiO3,Cs,Be,Cl,2,2,6,3.57825,39.15,5.1869,CsBeCl3
ABX3_BaNiO3_Cs_Be_Br,ABX3,BaNiO3,Cs,Be,Br,2,2,6,3.13075,28.1,3.9646,CsBeBr3
ABX3_BaNiO3_Cs_Be_I,ABX3,BaNiO3,Cs,Be,I,2,2,6,2.64986,23.75,2.4693,CsBeI3
ABX3_BaNiO3_Cs_Mg_F,ABX3,BaNiO3,Cs,Mg,F,2,2,6,4.84403,46.4,6.5725,CsMgF3
ABX3_BaNiO3_Cs_Mg_Cl,ABX3,BaNiO3,Cs,Mg,Cl,2,2,6,3.58705,27.65,5.1345,CsMgCl3
ABX3_BaNiO3_Cs_Mg_I,ABX3,BaNiO3,Cs,Mg,I,2,2,6,1.83212,8.3,0.2676,CsMgI3
ABX3_BaNiO3_Cs_Ca_F,ABX3,BaNiO3,Cs,Ca,F,2,2,6,5.03808,36.5,6.202,CsCaF3
ABX3_BaNiO3_Cs_Ca_Br,ABX3,BaNiO3,Cs,Ca,Br,2,2,6,2.06486,10.95,0.0001,CsCaBr3
ABX3_BaNiO3_Cs_Ca_I,ABX3,BaNiO3,Cs,Ca,I,2,2,6,1.89415,7.2,0.3168,CsCaI3