Compound,type,st,a1,a2,a3,n1,n2,n3,Ecoh,BM,bandgap,formula
BC2Y4_Rb2PtO4_Cd_Ga_Te,BC2Y4,Rb2PtO4,Cd,Ga,Te,2,4,8,2.55035,26.75,0.567,CdGa2Te4
BC2Y4_Rb2PtO4_Cd_In_O,BC2Y4,Rb2PtO4,Cd,In,O,2,4,8,4.23827,113.2,0,CdIn2O4
BC2Y4_Rb2PtO4_Cd_In_Se,BC2Y4,Rb2PtO4,Cd,In,Se,2,4,8,2.79764,29.6,0,CdIn2Se4
BC2Y4_Rb2PtO4_Cd_In_Te,BC2Y4,Rb2PtO4,Cd,In,Te,2,4,8,2.63162,47.5,0.0483,CdIn2Te4
BC2Y4_Rb2PtO4_Cd_Sc_O,BC2Y4,Rb2PtO4,Cd,Sc,O,2,4,8,6.50637,138.85,0,CdSc2O4
BC2Y4_Rb2PtO4_Cd_Sc_Se,BC2Y4,Rb2PtO4,Cd,Sc,Se,2,4,8,4.6332,62.05,0,CdSc2Se4
BC2Y4_Rb2PtO4_Cd_Sc_Te,BC2Y4,Rb2PtO4,Cd,Sc,Te,2,4,8,4.09013,50.35,0,CdSc2Te4
BC2Y4_Rb2PtO4_Cd_Y_O,BC2Y4,Rb2PtO4,Cd,Y,O,2,4,8,6.81024,128.75,0.4299,CdY2O4
BC2Y4_Rb2PtO4_Cd_Y_Se,BC2Y4,Rb2PtO4,Cd,Y,Se,2,4,8,4.98007,60.3,0.3286,CdY2Se4
BC2Y4_Rb2PtO4_Cd_Y_Te,BC2Y4,Rb2PtO4,Cd,Y,Te,2,4,8,4.41223,52.7,0.1356,CdY2Te4
BC2Y4_Rb2PtO4_Cd_La_O,BC2Y4,Rb2PtO4,Cd,La,O,2,4,8,6.51116,114,0.4627,CdLa2O4
BC2Y4_Rb2PtO4_Hg_Al_O,BC2Y4,Rb2PtO4,Hg,Al,O,2,4,8,4.63352,121.6,0.0271,HgAl2O4
BC2Y4_Rb2PtO4_Hg_Al_S,BC2Y4,Rb2PtO4,Hg,Al,S,2,4,8,2.95951,33.55,0,HgAl2S4
BC2Y4_Rb2PtO4_Hg_Al_Se,BC2Y4,Rb2PtO4,Hg,Al,Se,2,4,8,3.04523,49.5,0,HgAl2Se4
BC2Y4_Rb2PtO4_Hg_Al_Te,BC2Y4,Rb2PtO4,Hg,Al,Te,2,4,8,2.697,41.95,0,HgAl2Te4
BC2Y4_Rb2PtO4_Hg_Ga_O,BC2Y4,Rb2PtO4,Hg,Ga,O,2,4,8,4.01806,93.15,0,HgGa2O4
BC2Y4_Rb2PtO4_Hg_Ga_S,BC2Y4,Rb2PtO4,Hg,Ga,S,2,4,8,2.94452,33.65,0.4588,HgGa2S4
BC2Y4_Rb2PtO4_Hg_Ga_Se,BC2Y4,Rb2PtO4,Hg,Ga,Se,2,4,8,2.85089,39.3,0.3226,HgGa2Se4
BC2Y4_Rb2PtO4_Hg_Ga_Te,BC2Y4,Rb2PtO4,Hg,Ga,Te,2,4,8,2.54054,40.75,0.0345,HgGa2Te4
BC2Y4_Rb2PtO4_Hg_In_O,BC2Y4,Rb2PtO4,Hg,In,O,2,4,8,3.98786,110.5,0,HgIn2O4
BC2Y4_Rb2PtO4_Hg_In_S,BC2Y4,Rb2PtO4,Hg,In,S,2,4,8,2.96277,32.05,0.0314,HgIn2S4
BC2Y4_Rb2PtO4_Hg_In_Se,BC2Y4,Rb2PtO4,Hg,In,Se,2,4,8,2.85856,42.9,0,HgIn2Se4
BC2Y4_Rb2PtO4_Hg_Sc_O,BC2Y4,Rb2PtO4,Hg,Sc,O,2,4,8,6.28286,142.5,0.0064,HgSc2O4
BC2Y4_Rb2PtO4_Hg_Y_O,BC2Y4,Rb2PtO4,Hg,Y,O,2,4,8,6.5789,125.5,0.8962,HgY2O4
BC2Y4_Rb2PtO4_Hg_Y_Se,BC2Y4,Rb2PtO4,Hg,Y,Se,2,4,8,4.8211,58.45,0.2933,HgY2Se4
BC2Y4_Rb2PtO4_Hg_La_O,BC2Y4,Rb2PtO4,Hg,La,O,2,4,8,6.27792,109.8,0.9247,HgLa2O4
BC2Y4_Rb2PtO4_Hg_La_Se,BC2Y4,Rb2PtO4,Hg,La,Se,2,4,8,2.59111,,,HgLa2Se4
BC2Y4_Rb2PtO4_Hg_La_Te,BC2Y4,Rb2PtO4,Hg,La,Te,2,4,8,4.11773,57.85,0.4677,HgLa2Te4
BC2Y4_spinel_Mg_Al_O,BC2Y4,spinel,Mg,Al,O,8,16,32,7.17705,191.3,5.2073,MgAl2O4
BC2Y4_spinel_Mg_Al_S,BC2Y4,spinel,Mg,Al,S,8,16,32,4.85971,81.95,2.5638,MgAl2S4
BC2Y4_spinel_Mg_Al_Se,BC2Y4,spinel,Mg,Al,Se,8,16,32,4.26795,69.9,1.8444,MgAl2Se4
BC2Y4_spinel_Mg_Ga_O,BC2Y4,spinel,Mg,Ga,O,8,16,32,6.13291,197.35,3.1872,MgGa2O4
BC2Y4_spinel_Mg_Ga_S,BC2Y4,spinel,Mg,Ga,S,8,16,32,4.23677,86.7,1.4763,MgGa2S4
BC2Y4_spinel_Mg_Ga_Se,BC2Y4,spinel,Mg,Ga,Se,8,16,32,3.7409,67.45,0.7041,MgGa2Se4
BC2Y4_spinel_Mg_In_O,BC2Y4,spinel,Mg,In,O,8,16,32,5.75404,144.55,1.8558,MgIn2O4
BC2Y4_spinel_Mg_In_S,BC2Y4,spinel,Mg,In,S,8,16,32,4.15967,75.4,1.7435,MgIn2S4
BC2Y4_spinel_Mg_Sc_O,BC2Y4,spinel,Mg,Sc,O,8,16,32,8.19722,167.55,3.7391,MgSc2O4
BC2Y4_spinel_Mg_Sc_S,BC2Y4,spinel,Mg,Sc,S,8,16,32,6.16229,79.1,1.4986,MgSc2S4
BC2Y4_spinel_Mg_Sc_Te,BC2Y4,spinel,Mg,Sc,Te,8,16,32,4.92448,44.8,0.37,MgSc2Te4
BC2Y4_spinel_Mg_Y_O,BC2Y4,spinel,Mg,Y,O,8,16,32,8.09687,133.7,3.6776,MgY2O4
BC2Y4_spinel_Mg_Y_S,BC2Y4,spinel,Mg,Y,S,8,16,32,6.33363,67.05,1.7631,MgY2S4
BC2Y4_spinel_Mg_Y_Se,BC2Y4,spinel,Mg,Y,Se,8,16,32,5.7915,55.9,1.2927,MgY2Se4
BC2Y4_spinel_Mg_La_O,BC2Y4,spinel,Mg,La,O,8,16,32,7.44901,114.55,2.9853,MgLa2O4
BC2Y4_spinel_Ca_Al_O,BC2Y4,spinel,Ca,Al,O,8,16,32,7.16815,164.85,4.1221,CaAl2O4
BC2Y4_spinel_Ca_Al_S,BC2Y4,spinel,Ca,Al,S,8,16,32,4.97803,71.85,2.4913,CaAl2S4
BC2Y4_spinel_Ca_Al_Se,BC2Y4,spinel,Ca,Al,Se,8,16,32,4.4101,58.8,1.6224,CaAl2Se4
BC2Y4_spinel_Ca_Al_Te,BC2Y4,spinel,Ca,Al,Te,8,16,32,3.76035,44.7,0.8971,CaAl2Te4
BC2Y4_spinel_Ca_Ga_O,BC2Y4,spinel,Ca,Ga,O,8,16,32,6.19375,156.65,2.6942,CaGa2O4
BC2Y4_spinel_Ca_Ga_S,BC2Y4,spinel,Ca,Ga,S,8,16,32,4.37439,73,1.4568,CaGa2S4
BC2Y4_spinel_Ca_Ga_Se,BC2Y4,spinel,Ca,Ga,Se,8,16,32,3.89626,54.1,0.4708,CaGa2Se4
BC2Y4_spinel_Ca_Ga_Te,BC2Y4,spinel,Ca,Ga,Te,8,16,32,3.34466,42.65,0,CaGa2Te4
BC2Y4_spinel_Ca_In_O,BC2Y4,spinel,Ca,In,O,8,16,32,5.92811,142.3,2.0324,CaIn2O4
BC2Y4_spinel_Ca_In_S,BC2Y4,spinel,Ca,In,S,8,16,32,4.3565,62.65,1.7012,CaIn2S4
BC2Y4_spinel_Ca_Sc_O,BC2Y4,spinel,Ca,Sc,O,8,16,32,8.35002,150.25,3.6075,CaSc2O4
BC2Y4_spinel_Ca_Sc_S,BC2Y4,spinel,Ca,Sc,S,8,16,32,6.34842,69.6,1.8626,CaSc2S4
BC2Y4_spinel_Ca_Sc_Se,BC2Y4,spinel,Ca,Sc,Se,8,16,32,5.78996,58.3,1.5473,CaSc2Se4
BC2Y4_spinel_Ca_Y_O,BC2Y4,spinel,Ca,Y,O,8,16,32,8.3471,123.8,4.1607,CaY2O4
BC2Y4_spinel_Ca_Y_Se,BC2Y4,spinel,Ca,Y,Se,8,16,32,6.02828,52.4,2.1323,CaY2Se4
BC2Y4_spinel_Ca_La_Se,BC2Y4,spinel,Ca,La,Se,8,16,32,5.66208,44.25,2.3092,CaLa2Se4
BC2Y4_spinel_Sr_Al_O,BC2Y4,spinel,Sr,Al,O,8,16,32,6.95483,152.6,3.2048,SrAl2O4
BC2Y4_spinel_Sr_Al_S,BC2Y4,spinel,Sr,Al,S,8,16,32,4.86598,67.6,1.9655,SrAl2S4
BC2Y4_spinel_Sr_Al_Se,BC2Y4,spinel,Sr,Al,Se,8,16,32,4.31745,55.7,1.0584,SrAl2Se4
BC2Y4_spinel_Sr_Al_Te,BC2Y4,spinel,Sr,Al,Te,8,16,32,3.6888,46.9,0.4684,SrAl2Te4
BC2Y4_spinel_Sr_Ga_O,BC2Y4,spinel,Sr,Ga,O,8,16,32,6.0236,145.15,1.9797,SrGa2O4
BC2Y4_spinel_Sr_Ga_S,BC2Y4,spinel,Sr,Ga,S,8,16,32,4.27462,66.55,0.8544,SrGa2S4
BC2Y4_spinel_Sr_Ga_Se,BC2Y4,spinel,Sr,Ga,Se,8,16,32,3.81335,46.95,0.0424,SrGa2Se4
BC2Y4_spinel_Sr_Ga_Te,BC2Y4,spinel,Sr,Ga,Te,8,16,32,3.27793,29.15,0,SrGa2Te4
BC2Y4_spinel_Sr_In_O,BC2Y4,spinel,Sr,In,O,8,16,32,5.82516,140.3,1.8497,SrIn2O4
BC2Y4_spinel_Sr_Sc_O,BC2Y4,spinel,Sr,Sc,O,8,16,32,8.22391,144.65,3.381,SrSc2O4
BC2Y4_spinel_Sr_Sc_S,BC2Y4,spinel,Sr,Sc,S,8,16,32,6.2774,67.3,1.816,SrSc2S4
BC2Y4_spinel_Sr_Sc_Se,BC2Y4,spinel,Sr,Sc,Se,8,16,32,5.72945,52.85,1.5735,SrSc2Se4
BC2Y4_spinel_Sr_Y_O,BC2Y4,spinel,Sr,Y,O,8,16,32,8.27725,117,3.7531,SrY2O4
BC2Y4_spinel_Sr_Y_Se,BC2Y4,spinel,Sr,Y,Se,8,16,32,5.9894,49.65,2.1876,SrY2Se4
BC2Y4_spinel_Sr_La_Se,BC2Y4,spinel,Sr,La,Se,8,16,32,5.64689,43.5,2.3232,SrLa2Se4
BC2Y4_spinel_Ba_Al_O,BC2Y4,spinel,Ba,Al,O,,8,32,6.77933,139.5,2.3626,BaAl2O4
BC2Y4_spinel_Ba_Al_S,BC2Y4,spinel,Ba,Al,S,,8,32,4.80896,66.35,1.3008,BaAl2S4
BC2Y4_spinel_Ba_Al_Se,BC2Y4,spinel,Ba,Al,Se,,8,32,4.28538,50.1,0.5125,BaAl2Se4
BC2Y4_spinel_Ba_Al_Te,BC2Y4,spinel,Ba,Al,Te,,8,32,3.68516,55.8,0.0055,BaAl2Te4
BC2Y4_spinel_Ba_Ga_O,BC2Y4,spinel,Ba,Ga,O,,8,32,5.89665,140.2,1.3125,BaGa2O4
BC2Y4_spinel_Ba_Ga_S,BC2Y4,spinel,Ba,Ga,S,,8,32,4.23267,55.4,0.2537,BaGa2S4
BC2Y4_spinel_Ba_Ga_Se,BC2Y4,spinel,Ba,Ga,Se,,8,32,3.79541,44.5,0,BaGa2Se4
BC2Y4_spinel_Ba_Ga_Te,BC2Y4,spinel,Ba,Ga,Te,,8,32,3.28737,21.85,0,BaGa2Te4
BC2Y4_spinel_Ba_In_O,BC2Y4,spinel,Ba,In,O,,8,32,5.77039,115.65,1.4869,BaIn2O4
BC2Y4_spinel_Ba_Sc_O,BC2Y4,spinel,Ba,Sc,O,,8,32,8.13825,132.3,2.9929,BaSc2O4
BC2Y4_spinel_Ba_Y_O,BC2Y4,spinel,Ba,Y,O,,,32,8.25262,111.25,3.3717,BaY2O4
BC2Y4_spinel_Ba_Y_Se,BC2Y4,spinel,Ba,Y,Se,,,32,6.01276,47.4,2.0439,BaY2Se4
BC2Y4_spinel_Ba_Y_Te,BC2Y4,spinel,Ba,Y,Te,,,32,5.36007,36.45,1.6153,BaY2Te4
BC2Y4_spinel_Ba_La_Se,BC2Y4,spinel,Ba,La,Se,,8,32,5.69608,41.45,2.2367,BaLa2Se4
BC2Y4_spinel_Zn_Al_O,BC2Y4,spinel,Zn,Al,O,8,16,32,6.7456,188.65,3.8986,ZnAl2O4
BC2Y4_spinel_Zn_Al_S,BC2Y4,spinel,Zn,Al,S,8,16,32,4.62633,95.9,2.5167,ZnAl2S4
BC2Y4_spinel_Zn_Al_Se,BC2Y4,spinel,Zn,Al,Se,8,16,32,4.05362,77.95,1.4506,ZnAl2Se4
BC2Y4_spinel_Zn_Ga_O,BC2Y4,spinel,Zn,Ga,O,8,16,32,5.70186,203.9,2.4817,ZnGa2O4
BC2Y4_spinel_Zn_Ga_S,BC2Y4,spinel,Zn,Ga,S,8,16,32,3.99925,89.6,1.5848,ZnGa2S4
BC2Y4_spinel_Zn_Ga_Se,BC2Y4,spinel,Zn,Ga,Se,8,16,32,3.52642,63.15,0.3155,ZnGa2Se4
BC2Y4_spinel_Zn_Ga_Te,BC2Y4,spinel,Zn,Ga,Te,8,16,32,3.012,52.5,0.0001,ZnGa2Te4
BC2Y4_spinel_Zn_In_O,BC2Y4,spinel,Zn,In,O,8,16,32,5.31442,149,1.195,ZnIn2O4
BC2Y4_spinel_Zn_In_S,BC2Y4,spinel,Zn,In,S,8,16,32,3.89171,69.8,1.1694,ZnIn2S4
BC2Y4_spinel_Zn_Sc_O,BC2Y4,spinel,Zn,Sc,O,8,16,32,7.75548,178.95,2.9761,ZnSc2O4
BC2Y4_spinel_Zn_Sc_S,BC2Y4,spinel,Zn,Sc,S,8,16,32,5.90005,84.45,0.5148,ZnSc2S4
BC2Y4_spinel_Zn_Sc_Se,BC2Y4,spinel,Zn,Sc,Se,8,16,32,5.35937,69.85,0.0952,ZnSc2Se4
BC2Y4_spinel_Zn_Y_O,BC2Y4,spinel,Zn,Y,O,8,16,32,7.65014,136.2,2.4424,ZnY2O4
BC2Y4_spinel_Zn_Y_S,BC2Y4,spinel,Zn,Y,S,8,16,32,6.04249,72.05,0.6594,ZnY2S4
BC2Y4_spinel_Cd_Al_O,BC2Y4,spinel,Cd,Al,O,8,16,32,6.50024,179.65,2.7116,CdAl2O4
BC2Y4_spinel_Cd_Al_S,BC2Y4,spinel,Cd,Al,S,8,16,32,4.50995,82.1,2.4556,CdAl2S4
BC2Y4_spinel_Cd_Al_Se,BC2Y4,spinel,Cd,Al,Se,8,16,32,3.97004,67.15,1.3019,CdAl2Se4
BC2Y4_spinel_Cd_Al_Te,BC2Y4,spinel,Cd,Al,Te,8,16,32,3.38098,46.5,0.741,CdAl2Te4
BC2Y4_spinel_Cd_Ga_O,BC2Y4,spinel,Cd,Ga,O,8,16,32,5.5099,173.8,1.6752,CdGa2O4
BC2Y4_spinel_Cd_Ga_S,BC2Y4,spinel,Cd,Ga,S,8,16,32,3.89656,76.5,1.3902,CdGa2S4
BC2Y4_spinel_Cd_Ga_Se,BC2Y4,spinel,Cd,Ga,Se,8,16,32,3.45257,58.1,0.1442,CdGa2Se4
BC2Y4_spinel_Cd_Ga_Te,BC2Y4,spinel,Cd,Ga,Te,8,16,32,2.96239,43.55,0,CdGa2Te4
BC2Y4_spinel_Cd_In_O,BC2Y4,spinel,Cd,In,O,8,16,32,5.20543,134.1,1.0044,CdIn2O4
BC2Y4_spinel_Cd_Sc_O,BC2Y4,spinel,Cd,Sc,O,8,16,32,7.62532,155.75,2.7943,CdSc2O4
BC2Y4_spinel_Cd_Sc_S,BC2Y4,spinel,Cd,Sc,S,8,16,32,5.81537,79.1,0.8917,CdSc2S4
BC2Y4_spinel_Cd_Sc_Se,BC2Y4,spinel,Cd,Sc,Se,8,16,32,5.29302,62.75,0.428,CdSc2Se4
BC2Y4_spinel_Cd_Sc_Te,BC2Y4,spinel,Cd,Sc,Te,8,16,32,4.68583,48.35,0.0003,CdSc2Te4
BC2Y4_spinel_Cd_Y_O,BC2Y4,spinel,Cd,Y,O,8,16,32,7.59682,123.55,2.3764,CdY2O4
BC2Y4_spinel_Cd_Y_S,BC2Y4,spinel,Cd,Y,S,8,16,32,5.99435,66.2,1.0932,CdY2S4
BC2Y4_spinel_Cd_La_O,BC2Y4,spinel,Cd,La,O,8,16,32,6.99911,111.8,2.0544,CdLa2O4
BC2Y4_spinel_Cd_La_S,BC2Y4,spinel,Cd,La,S,8,16,32,5.5541,57.95,1.1446,CdLa2S4
BC2Y4_spinel_Hg_Al_O,BC2Y4,spinel,Hg,Al,O,8,16,32,6.13274,167.2,1.3622,HgAl2O4
BC2Y4_spinel_Hg_Al_S,BC2Y4,spinel,Hg,Al,S,8,16,32,4.28079,87.95,1.305,HgAl2S4
BC2Y4_spinel_Hg_Al_Se,BC2Y4,spinel,Hg,Al,Se,8,16,32,3.76893,66.1,0.394,HgAl2Se4
BC2Y4_spinel_Hg_Ga_O,BC2Y4,spinel,Hg,Ga,O,8,16,32,5.15792,173.5,0.6028,HgGa2O4
BC2Y4_spinel_Hg_Ga_S,BC2Y4,spinel,Hg,Ga,S,8,16,32,3.67263,77,0.6582,HgGa2S4
BC2Y4_spinel_Hg_Ga_Se,BC2Y4,spinel,Hg,Ga,Se,8,16,32,3.2582,55.3,0,HgGa2Se4
BC2Y4_spinel_Hg_Ga_Te,BC2Y4,spinel,Hg,Ga,Te,8,16,32,2.80799,44.2,0,HgGa2Te4
BC2Y4_spinel_Hg_In_O,BC2Y4,spinel,Hg,In,O,8,16,32,4.87395,138.4,0.2624,HgIn2O4
BC2Y4_spinel_Hg_Sc_O,BC2Y4,spinel,Hg,Sc,O,8,16,32,7.28557,152.15,1.4282,HgSc2O4
BC2Y4_spinel_Hg_Sc_S,BC2Y4,spinel,Hg,Sc,S,8,16,32,5.58255,75,0.1735,HgSc2S4
BC2Y4_spinel_Hg_Sc_Se,BC2Y4,spinel,Hg,Sc,Se,8,16,32,5.08571,63.2,0,HgSc2Se4
BC2Y4_spinel_Hg_Y_O,BC2Y4,spinel,Hg,Y,O,8,16,32,7.27775,120.3,1.2251,HgY2O4
BC2Y4_spinel_Hg_Y_S,BC2Y4,spinel,Hg,Y,S,8,16,32,5.75837,65.95,0.3308,HgY2S4
ABZ_BaPtSb_Li_Be_N,ABZ,BaPtSb,Li,Be,N,1,1,1,4.34128,119.85,1.9908,LiBeN
ABZ_BaPtSb_Li_Be_P,ABZ,BaPtSb,Li,Be,P,1,1,1,3.46608,70.05,0.0625,LiBeP
ABZ_BaPtSb_Li_Be_As,ABZ,BaPtSb,Li,Be,As,1,1,1,3.2188,69.65,0.9387,LiBeAs
ABZ_BaPtSb_Li_Be_Sb,ABZ,BaPtSb,Li,Be,Sb,1,1,1,2.86422,38,0.9658,LiBeSb
ABZ_BaPtSb_Li_Mg_N,ABZ,BaPtSb,Li,Mg,N,1,1,1,4.16395,93.65,0.9847,LiMgN
ABZ_BaPtSb_Li_Mg_P,ABZ,BaPtSb,Li,Mg,P,1,1,1,3.39105,54.15,0.9827,LiMgP
ABZ_BaPtSb_Li_Mg_As,ABZ,BaPtSb,Li,Mg,As,1,1,1,3.16743,45.15,0.0593,LiMgAs
ABZ_BaPtSb_Li_Mg_Sb,ABZ,BaPtSb,Li,Mg,Sb,1,1,1,2.8596,41.5,0.2811,LiMgSb
ABZ_BaPtSb_Li_Ca_N,ABZ,BaPtSb,Li,Ca,N,1,1,1,4.55907,73.9,1.2001,LiCaN
ABZ_BaPtSb_Li_Ca_P,ABZ,BaPtSb,Li,Ca,P,1,1,1,3.99641,44.95,1.3329,LiCaP
ABZ_BaPtSb_Li_Ca_As,ABZ,BaPtSb,Li,Ca,As,1,1,1,3.77666,40.55,1.0829,LiCaAs
ABZ_BaPtSb_Li_Ca_Sb,ABZ,BaPtSb,Li,Ca,Sb,1,1,1,3.4731,40.55,1.1267,LiCaSb
ABZ_BaPtSb_Li_Sr_N,ABZ,BaPtSb,Li,Sr,N,1,1,1,4.33314,65.2,0.6942,LiSrN
ABZ_BaPtSb_Li_Sr_P,ABZ,BaPtSb,Li,Sr,P,1,1,1,3.91274,40.65,1.0811,LiSrP
ABZ_BaPtSb_Li_Sr_As,ABZ,BaPtSb,Li,Sr,As,1,1,1,3.71358,38.4,0.8515,LiSrAs
ABZ_BaPtSb_Li_Sr_Sb,ABZ,BaPtSb,Li,Sr,Sb,1,1,1,3.44975,42.7,0.9635,LiSrSb
ABZ_BaPtSb_Li_Ba_N,ABZ,BaPtSb,Li,Ba,N,1,1,1,4.30981,63.25,0.312,LiBaN
ABZ_BaPtSb_Li_Ba_P,ABZ,BaPtSb,Li,Ba,P,1,1,1,3.98533,38.65,0.6915,LiBaP
ABZ_BaPtSb_Li_Ba_As,ABZ,BaPtSb,Li,Ba,As,1,1,1,3.80774,32.45,0.5879,LiBaAs
ABZ_BaPtSb_Li_Ba_Sb,ABZ,BaPtSb,Li,Ba,Sb,1,1,1,3.58603,30.3,0.6777,LiBaSb
ABZ_BaPtSb_Li_Zn_N,ABZ,BaPtSb,Li,Zn,N,1,1,1,3.52538,96.5,0.0001,LiZnN
ABZ_BaPtSb_Li_Zn_P,ABZ,BaPtSb,Li,Zn,P,1,1,1,2.8922,55.3,0.9568,LiZnP
ABZ_BaPtSb_Li_Zn_As,ABZ,BaPtSb,Li,Zn,As,1,1,1,2.70042,48.15,1.7313,LiZnAs
ABZ_BaPtSb_Li_Zn_Sb,ABZ,BaPtSb,Li,Zn,Sb,1,1,1,2.4263,23.1,2.0309,LiZnSb
ABZ_BaPtSb_Li_Cd_N,ABZ,BaPtSb,Li,Cd,N,1,1,1,3.40213,80.55,0,LiCdN
ABZ_BaPtSb_Li_Cd_P,ABZ,BaPtSb,Li,Cd,P,1,1,1,2.84583,50.9,0.4168,LiCdP
ABZ_BaPtSb_Li_Cd_As,ABZ,BaPtSb,Li,Cd,As,1,1,1,2.67583,42.45,1.0981,LiCdAs
ABZ_BaPtSb_Li_Cd_Sb,ABZ,BaPtSb,Li,Cd,Sb,1,1,1,2.4337,33.25,1.2103,LiCdSb
ABZ_BaPtSb_Li_Hg_N,ABZ,BaPtSb,Li,Hg,N,1,1,1,2.92487,80.8,0,LiHgN
ABZ_BaPtSb_Li_Hg_P,ABZ,BaPtSb,Li,Hg,P,1,1,1,2.50767,48.3,0.5309,LiHgP
ABZ_BaPtSb_Li_Hg_As,ABZ,BaPtSb,Li,Hg,As,1,1,1,2.37091,40.7,1.1036,LiHgAs
ABZ_BaPtSb_Li_Hg_Sb,ABZ,BaPtSb,Li,Hg,Sb,1,1,1,2.18424,36.55,1.1446,LiHgSb
ABZ_BaPtSb_Na_Be_N,ABZ,BaPtSb,Na,Be,N,1,1,1,3.11671,65.4,1.9201,NaBeN
ABZ_BaPtSb_Na_Be_P,ABZ,BaPtSb,Na,Be,P,1,1,1,2.8708,48.9,3.7605,NaBeP
ABZ_BaPtSb_Na_Be_As,ABZ,BaPtSb,Na,Be,As,1,1,1,2.70694,45.6,3.6776,NaBeAs
ABZ_BaPtSb_Na_Be_Sb,ABZ,BaPtSb,Na,Be,Sb,1,1,1,2.47097,31.6,3.2786,NaBeSb
ABZ_BaPtSb_Na_Mg_N,ABZ,BaPtSb,Na,Mg,N,1,1,1,3.16094,65.85,0.7189,NaMgN
ABZ_BaPtSb_Na_Mg_P,ABZ,BaPtSb,Na,Mg,P,1,1,1,2.75197,38.95,1.9629,NaMgP
ABZ_BaPtSb_Na_Mg_As,ABZ,BaPtSb,Na,Mg,As,1,1,1,2.62686,37,2.7513,NaMgAs
ABZ_BaPtSb_Na_Mg_Sb,ABZ,BaPtSb,Na,Mg,Sb,1,1,1,2.41847,27.3,2.9197,NaMgSb
ABZ_BaPtSb_Na_Ca_N,ABZ,BaPtSb,Na,Ca,N,1,1,1,3.74857,54.2,0.1608,NaCaN
ABZ_BaPtSb_Na_Ca_P,ABZ,BaPtSb,Na,Ca,P,1,1,1,3.39381,39.2,0.295,NaCaP
ABZ_BaPtSb_Na_Ca_As,ABZ,BaPtSb,Na,Ca,As,1,1,1,3.22325,35.9,0.12,NaCaAs
ABZ_BaPtSb_Na_Ca_Sb,ABZ,BaPtSb,Na,Ca,Sb,1,1,1,2.99067,33.3,0.0285,NaCaSb
ABZ_BaPtSb_Na_Sr_N,ABZ,BaPtSb,Na,Sr,N,1,1,1,3.65642,51.35,0.316,NaSrN
ABZ_BaPtSb_Na_Sr_P,ABZ,BaPtSb,Na,Sr,P,1,1,1,3.38516,35.2,0.2771,NaSrP
ABZ_BaPtSb_Na_Sr_As,ABZ,BaPtSb,Na,Sr,As,1,1,1,3.22356,31.7,0.0587,NaSrAs
ABZ_BaPtSb_Na_Sr_Sb,ABZ,BaPtSb,Na,Sr,Sb,1,1,1,3.01601,23,0.1165,NaSrSb
ABZ_BaPtSb_Na_Ba_N,ABZ,BaPtSb,Na,Ba,N,1,1,1,3.74432,46.65,0.2479,NaBaN
ABZ_BaPtSb_Na_Ba_P,ABZ,BaPtSb,Na,Ba,P,1,1,1,3.5369,33,0.2716,NaBaP
ABZ_BaPtSb_Na_Ba_As,ABZ,BaPtSb,Na,Ba,As,1,1,1,3.38665,31,0.076,NaBaAs
ABZ_BaPtSb_Na_Ba_Sb,ABZ,BaPtSb,Na,Ba,Sb,1,1,1,3.20654,39.85,0.2376,NaBaSb
ABZ_BaPtSb_Na_Zn_N,ABZ,BaPtSb,Na,Zn,N,1,1,1,2.63549,56.6,1.1095,NaZnN
ABZ_BaPtSb_Na_Zn_P,ABZ,BaPtSb,Na,Zn,P,1,1,1,2.41661,45.75,3.8937,NaZnP
ABZ_BaPtSb_Na_Zn_As,ABZ,BaPtSb,Na,Zn,As,1,1,1,2.31148,40.1,3.8681,NaZnAs
ABZ_BaPtSb_Na_Zn_Sb,ABZ,BaPtSb,Na,Zn,Sb,1,1,1,2.15143,33.2,3.4418,NaZnSb
ABZ_BaPtSb_Na_Cd_N,ABZ,BaPtSb,Na,Cd,N,1,1,1,2.63687,58.4,0.4234,NaCdN
ABZ_BaPtSb_Na_Cd_P,ABZ,BaPtSb,Na,Cd,P,1,1,1,2.35386,41.65,2.4619,NaCdP
ABZ_BaPtSb_Na_Cd_As,ABZ,BaPtSb,Na,Cd,As,1,1,1,2.26259,37.5,3.2034,NaCdAs
ABZ_BaPtSb_Na_Cd_Sb,ABZ,BaPtSb,Na,Cd,Sb,1,1,1,2.1411,48.15,3.3414,NaCdSb
ABZ_BaPtSb_Na_Hg_N,ABZ,BaPtSb,Na,Hg,N,1,1,1,2.30888,50.4,0.2682,NaHgN
ABZ_BaPtSb_Na_Hg_P,ABZ,BaPtSb,Na,Hg,P,1,1,1,2.12115,43.2,3.7559,NaHgP
ABZ_BaPtSb_Na_Hg_As,ABZ,BaPtSb,Na,Hg,As,1,1,1,2.07362,38.6,3.7164,NaHgAs
ABZ_BaPtSb_Na_Hg_Sb,ABZ,BaPtSb,Na,Hg,Sb,1,1,1,1.98712,28.95,3.2965,NaHgSb
ABZ_BaPtSb_K_Be_N,ABZ,BaPtSb,K,Be,N,1,1,1,2.46445,60.8,3.0993,KBeN
ABZ_BaPtSb_K_Be_P,ABZ,BaPtSb,K,Be,P,1,1,1,2.50651,39.15,4.3024,KBeP
ABZ_BaPtSb_K_Be_As,ABZ,BaPtSb,K,Be,As,1,1,1,2.40599,32.9,4.1546,KBeAs
ABZ_BaPtSb_K_Be_Sb,ABZ,BaPtSb,K,Be,Sb,1,1,1,2.23774,32.85,3.7129,KBeSb
ABZ_BaPtSb_K_Mg_N,ABZ,BaPtSb,K,Mg,N,1,1,1,2.48797,31.9,1.4611,KMgN
ABZ_BaPtSb_K_Mg_P,ABZ,BaPtSb,K,Mg,P,1,1,1,2.34741,26.9,3.2613,KMgP
ABZ_BaPtSb_K_Mg_As,ABZ,BaPtSb,K,Mg,As,1,1,1,2.29966,28.85,4.1149,KMgAs
ABZ_BaPtSb_K_Mg_Sb,ABZ,BaPtSb,K,Mg,Sb,1,1,1,2.20603,34.15,3.7451,KMgSb
ABZ_BaPtSb_K_Ca_N,ABZ,BaPtSb,K,Ca,N,1,1,1,3.09417,33.7,0.8118,KCaN
ABZ_BaPtSb_K_Ca_P,ABZ,BaPtSb,K,Ca,P,1,1,1,2.89763,28.4,0.7021,KCaP
ABZ_BaPtSb_K_Ca_As,ABZ,BaPtSb,K,Ca,As,1,1,1,2.77492,23.55,1.0957,KCaAs
ABZ_BaPtSb_K_Ca_Sb,ABZ,BaPtSb,K,Ca,Sb,1,1,1,2.63885,28.55,1.385,KCaSb
ABZ_BaPtSb_K_Sr_N,ABZ,BaPtSb,K,Sr,N,1,1,1,3.08425,31,0.8429,KSrN
ABZ_BaPtSb_K_Sr_P,ABZ,BaPtSb,K,Sr,P,1,1,1,2.93286,22.85,0.5188,KSrP
ABZ_BaPtSb_K_Sr_As,ABZ,BaPtSb,K,Sr,As,1,1,1,2.80883,23.4,0.825,KSrAs
ABZ_BaPtSb_K_Sr_Sb,ABZ,BaPtSb,K,Sr,Sb,1,1,1,2.65826,19.4,0.7936,KSrSb
ABZ_BaPtSb_K_Ba_N,ABZ,BaPtSb,K,Ba,N,1,1,1,3.2669,32.9,0.756,KBaN
ABZ_BaPtSb_K_Ba_P,ABZ,BaPtSb,K,Ba,P,1,1,1,3.1417,23.85,0.3056,KBaP
ABZ_BaPtSb_K_Ba_As,ABZ,BaPtSb,K,Ba,As,1,1,1,3.01931,23.4,0.4583,KBaAs
ABZ_BaPtSb_K_Ba_Sb,ABZ,BaPtSb,K,Ba,Sb,1,1,1,2.88238,29.3,0.3801,KBaSb
ABZ_BaPtSb_K_Zn_N,ABZ,BaPtSb,K,Zn,N,1,1,1,2.12508,31,1.8228,KZnN
ABZ_BaPtSb_K_Zn_P,ABZ,BaPtSb,K,Zn,P,1,1,1,2.16927,29.8,4.4614,KZnP
ABZ_BaPtSb_K_Zn_As,ABZ,BaPtSb,K,Zn,As,1,1,1,2.09894,31.1,4.3015,KZnAs
ABZ_BaPtSb_K_Zn_Sb,ABZ,BaPtSb,K,Zn,Sb,1,1,1,1.99071,27.8,3.8823,KZnSb
ABZ_BaPtSb_K_Cd_N,ABZ,BaPtSb,K,Cd,N,1,1,1,2.13923,31.9,1.1705,KCdN
ABZ_BaPtSb_K_Cd_P,ABZ,BaPtSb,K,Cd,P,1,1,1,2.12662,34.2,4.144,KCdP
ABZ_BaPtSb_K_Cd_As,ABZ,BaPtSb,K,Cd,As,1,1,1,2.077,29.35,4.0671,KCdAs
ABZ_BaPtSb_K_Cd_Sb,ABZ,BaPtSb,K,Cd,Sb,1,1,1,2.00175,32.8,3.7584,KCdSb
ABZ_BaPtSb_K_Hg_N,ABZ,BaPtSb,K,Hg,N,1,1,1,1.94841,25.05,0.8953,KHgN
ABZ_BaPtSb_K_Hg_P,ABZ,BaPtSb,K,Hg,P,1,1,1,1.97719,29.8,4.2396,KHgP
ABZ_BaPtSb_K_Hg_As,ABZ,BaPtSb,K,Hg,As,1,1,1,1.94144,29,4.1751,KHgAs
ABZ_BaPtSb_K_Hg_Sb,ABZ,BaPtSb,K,Hg,Sb,1,1,1,1.88931,31.7,3.8196,KHgSb
ABZ_BaPtSb_Rb_Be_N,ABZ,BaPtSb,Rb,Be,N,1,1,1,2.1976,26.6,2.5019,RbBeN
ABZ_BaPtSb_Rb_Be_P,ABZ,BaPtSb,Rb,Be,P,1,1,1,2.27354,34.65,4.3851,RbBeP
ABZ_BaPtSb_Rb_Be_As,ABZ,BaPtSb,Rb,Be,As,1,1,1,2.21457,26.8,4.2433,RbBeAs
ABZ_BaPtSb_Rb_Be_Sb,ABZ,BaPtSb,Rb,Be,Sb,1,1,1,2.10534,15.35,3.8873,RbBeSb
ABZ_BaPtSb_Rb_Mg_N,ABZ,BaPtSb,Rb,Mg,N,1,1,1,2.23927,27.95,1.5033,RbMgN
ABZ_BaPtSb_Rb_Mg_P,ABZ,BaPtSb,Rb,Mg,P,1,1,1,2.19387,24.2,4.474,RbMgP
ABZ_BaPtSb_Rb_Mg_As,ABZ,BaPtSb,Rb,Mg,As,1,1,1,2.14727,22.2,4.3216,RbMgAs
ABZ_BaPtSb_Rb_Mg_Sb,ABZ,BaPtSb,Rb,Mg,Sb,1,1,1,2.0894,24.25,3.9231,RbMgSb
ABZ_BaPtSb_Rb_Ca_N,ABZ,BaPtSb,Rb,Ca,N,1,1,1,2.83088,30.5,1.0431,RbCaN
ABZ_BaPtSb_Rb_Ca_P,ABZ,BaPtSb,Rb,Ca,P,1,1,1,2.68022,22.7,1.0795,RbCaP
ABZ_BaPtSb_Rb_Ca_As,ABZ,BaPtSb,Rb,Ca,As,1,1,1,2.57776,21.2,1.3945,RbCaAs
ABZ_BaPtSb_Rb_Ca_Sb,ABZ,BaPtSb,Rb,Ca,Sb,1,1,1,2.47886,29.95,1.5471,RbCaSb
ABZ_BaPtSb_Rb_Sr_N,ABZ,BaPtSb,Rb,Sr,N,1,1,1,2.84502,26,1.0223,RbSrN
ABZ_BaPtSb_Rb_Sr_P,ABZ,BaPtSb,Rb,Sr,P,1,1,1,2.72681,21.55,0.8158,RbSrP
ABZ_BaPtSb_Rb_Sr_As,ABZ,BaPtSb,Rb,Sr,As,1,1,1,2.61995,20.85,1.1279,RbSrAs
ABZ_BaPtSb_Rb_Sr_Sb,ABZ,BaPtSb,Rb,Sr,Sb,1,1,1,2.49051,16.8,1.145,RbSrSb
ABZ_BaPtSb_Rb_Ba_N,ABZ,BaPtSb,Rb,Ba,N,1,1,1,3.06173,24.75,0.8975,RbBaN
ABZ_BaPtSb_Rb_Ba_P,ABZ,BaPtSb,Rb,Ba,P,1,1,1,2.95558,20.85,0.4907,RbBaP
ABZ_BaPtSb_Rb_Ba_As,ABZ,BaPtSb,Rb,Ba,As,1,1,1,2.84513,16.85,0.6183,RbBaAs
ABZ_BaPtSb_Rb_Ba_Sb,ABZ,BaPtSb,Rb,Ba,Sb,1,1,1,2.72396,14.8,0.4605,RbBaSb
ABZ_BaPtSb_Rb_Zn_N,ABZ,BaPtSb,Rb,Zn,N,1,1,1,1.935,22.9,1.4905,RbZnN
ABZ_BaPtSb_Rb_Zn_P,ABZ,BaPtSb,Rb,Zn,P,1,1,1,1.99501,25.45,4.6154,RbZnP
ABZ_BaPtSb_Rb_Zn_As,ABZ,BaPtSb,Rb,Zn,As,1,1,1,1.95234,25.75,4.4948,RbZnAs
ABZ_BaPtSb_Rb_Zn_Sb,ABZ,BaPtSb,Rb,Zn,Sb,1,1,1,1.88567,18.8,4.0671,RbZnSb
ABZ_BaPtSb_Rb_Cd_N,ABZ,BaPtSb,Rb,Cd,N,1,1,1,1.949,19.1,1.1389,RbCdN
ABZ_BaPtSb_Rb_Cd_P,ABZ,BaPtSb,Rb,Cd,P,1,1,1,1.98332,26.5,4.3977,RbCdP
ABZ_BaPtSb_Rb_Cd_As,ABZ,BaPtSb,Rb,Cd,As,1,1,1,1.95042,25.8,4.2968,RbCdAs
ABZ_BaPtSb_Rb_Cd_Sb,ABZ,BaPtSb,Rb,Cd,Sb,1,1,1,1.90516,34.8,3.9891,RbCdSb
ABZ_BaPtSb_Rb_Hg_N,ABZ,BaPtSb,Rb,Hg,N,1,1,1,1.81038,17.2,0.7453,RbHgN
ABZ_BaPtSb_Rb_Hg_P,ABZ,BaPtSb,Rb,Hg,P,1,1,1,1.85567,26.1,4.4775,RbHgP
ABZ_BaPtSb_Rb_Hg_As,ABZ,BaPtSb,Rb,Hg,As,1,1,1,1.83232,21.7,4.3826,RbHgAs
ABZ_BaPtSb_Rb_Hg_Sb,ABZ,BaPtSb,Rb,Hg,Sb,1,1,1,1.80293,18.85,4.0145,RbHgSb
ABZ_BaPtSb_Cs_Be_N,ABZ,BaPtSb,Cs,Be,N,1,1,1,2.01084,21.05,1.7543,CsBeN
ABZ_BaPtSb_Cs_Be_P,ABZ,BaPtSb,Cs,Be,P,1,1,1,2.02519,24.8,4.4632,CsBeP
ABZ_BaPtSb_Cs_Be_As,ABZ,BaPtSb,Cs,Be,As,1,1,1,2.0046,23.9,4.3729,CsBeAs
ABZ_BaPtSb_Cs_Be_Sb,ABZ,BaPtSb,Cs,Be,Sb,1,1,1,1.97283,20.3,4.0827,CsBeSb
ABZ_BaPtSb_Cs_Mg_N,ABZ,BaPtSb,Cs,Mg,N,1,1,1,2.07535,21.55,1.4852,CsMgN
ABZ_BaPtSb_Cs_Mg_P,ABZ,BaPtSb,Cs,Mg,P,1,1,1,2.0424,21.35,4.3095,CsMgP
ABZ_BaPtSb_Cs_Mg_As,ABZ,BaPtSb,Cs,Mg,As,1,1,1,2.01136,22.4,4.5756,CsMgAs