formula,Z,Period,Group,m,kai,EA,IE1,IE2,Rvdw,Rcov,MP,BP,Cp_g,Cp_mol,rho,E-fusion,E-vapor,ThermalConductivity
NaSrP,21.3333333333,3.66666666667,6.0,47.1933333333,1.35666666667,0.431476666667,7.106872,26.0286666667,2.18666666667,1.53,579.464666667,1119.96333333,0.767666666667,26.2813333333,1.807,3.74666666667,82.4366666667,0.58845
NaSrSb,33.3333333333,4.33333333333,6.0,77.47,1.31,0.53931,6.480772,24.9821666667,2.27333333333,1.63333333333,774.957333333,1555.46333333,0.580333333333,26.75,3.43166666667,10.1,100.96,0.668666666667
NaZnAs,24.6666666667,3.66666666667,9.33333333333,54.4333333333,1.58666666667,0.452643333333,8.10729166667,27.9466633333,2.04333333333,1.33333333333,717.923666667,1075.13,0.648333333333,26.0866666667,4.61166666667,12.55,81.9033333333,1.024
NaZnBr3,29.2,3.8,12.8,65.616,2.292,2.128586,9.994935,26.004758,1.966,1.262,372.2942,666.418,0.6076,56.138,3.4936,5.47,51.497,0.514732
NaZnCl3,18.4,3.2,12.8,38.946,2.412,2.279786,10.687233,27.338318,1.906,1.16,315.7142,610.714,0.6106,31.0934,3.55,3.91,48.782,0.5140534
NaZnF3,13.6,2.6,12.8,29.076,2.904,2.148986,13.360335,34.032638,1.738,0.92,244.8122,518.272,0.8176,29.5064,2.6392,2.146,44.62388,0.5141674
NaZnI3,40.0,4.4,12.8,93.816,2.112,1.945046,9.177411,24.528938,2.044,1.376,444.8342,741.778,0.4516,43.382,4.5856,6.646,55.202,0.516694
NaZnN,16.0,3.0,9.33333333333,34.13,1.87333333333,0.15931,9.689125,31.6173633333,1.94333333333,1.17,375.590333333,804.531666667,0.885333333333,27.5813333333,3.11966666667,3.43666666667,72.0342666667,0.856753266667
NaZnP,18.6666666667,3.33333333333,9.33333333333,39.7833333333,1.59,0.431476666667,8.33998833333,28.3400966667,2.02666666667,1.29666666667,460.307,963.296666667,0.795,25.8146666667,3.31033333333,3.53,75.2366666667,0.85745
NaZnSb,30.6666666667,4.0,9.33333333333,70.06,1.54333333333,0.53931,7.71388833333,27.2935966667,2.11333333333,1.4,655.799666667,1398.79666667,0.607666666667,26.2833333333,4.935,9.88333333333,93.76,0.937666666667
Rb3As,36.0,4.75,4.5,82.8325,1.16,0.56694,5.579996,25.114425,2.735,1.9125,506.875,943.15,0.3545,29.455,2.58075,8.5675,60.0,0.562
Rb3N,29.5,4.25,4.5,67.605,1.375,0.34694,6.766371,27.86745,2.66,1.79,250.125,740.20125,0.53225,30.576,1.46175,1.7325,52.5982,0.43656495
Rb3P,31.5,4.5,4.5,71.845,1.1625,0.551065,5.7545185,25.4095,2.7225,1.885,313.6625,859.275,0.4645,29.251,1.60475,1.8025,55.0,0.4370875
Rb3Sb,40.5,5.0,4.5,94.5525,1.1275,0.63194,5.2849435,24.624625,2.7875,1.9625,460.282,1185.9,0.324,29.6025,2.82325,6.5675,68.8925,0.49725
RbBaAs,42.0,5.0,6.0,99.23,1.29666666667,0.431973333333,6.392464,18.62751,2.52,1.80333333333,800.916666667,1322.81666667,0.298666666667,27.9233333333,3.58966666667,12.63,80.6,0.422666666667
RbBaBr3,39.6,4.6,10.8,92.494,2.118,2.116184,8.9660384,20.413266,2.252,1.544,422.09,815.03,0.3978,57.24,2.8804,5.518,50.715,0.153932
RbBaCl3,28.8,4.0,10.8,65.824,2.238,2.267384,9.6583364,21.746826,2.192,1.442,365.51,759.326,0.4008,32.1954,2.9368,3.958,48.0,0.1532534
RbBaF3,24.0,3.4,10.8,55.954,2.73,2.136584,12.3314384,28.441146,2.024,1.202,294.608,666.884,0.6078,30.6084,2.026,2.194,43.84188,0.1533674
RbBaI3,50.4,5.2,10.8,120.694,1.938,1.932644,8.1485144,18.937446,2.33,1.658,494.63,890.39,0.2418,44.484,3.9724,6.694,54.42,0.155894
RbBaN,33.3333333333,4.33333333333,6.0,78.9266666667,1.58333333333,0.13864,7.97429733333,22.29821,2.42,1.64,458.583333333,1052.21833333,0.535666666667,29.418,2.09766666667,3.51666666667,70.7309333333,0.255419933333
RbBaP,36.0,4.66666666667,6.0,84.58,1.3,0.410806666667,6.62516066667,19.0209433333,2.50333333333,1.76666666667,543.3,1210.98333333,0.445333333333,27.6513333333,2.28833333333,3.61,73.9333333333,0.256116666667
RbBaSb,48.0,5.33333333333,6.0,114.856666667,1.25333333333,0.51864,5.99906066667,17.9744433333,2.59,1.87,738.792666667,1646.48333333,0.258,28.12,3.913,9.96333333333,92.4566666667,0.336333333333
RbBeAs,24.6666666667,3.66666666667,6.0,56.4673333333,1.52333333333,0.431973333333,7.76280933333,21.36328,2.13666666667,1.44666666667,987.583333333,1530.48333333,0.839,24.0476666667,3.03566666667,12.6133333333,132.866666667,1.03133333333
RbBeBr3,29.2,3.8,10.8,66.8364,2.254,2.116184,9.7882456,22.054728,2.022,1.33,534.09,939.63,0.722,54.9146,2.548,5.508,82.075,0.519132
RbBeCl3,18.4,3.2,10.8,40.1664,2.374,2.267384,10.4805436,23.388288,1.962,1.228,477.51,883.926,0.725,29.87,2.6044,3.948,79.36,0.5184534
RbBeF3,13.6,2.6,10.8,30.2964,2.866,2.136584,13.1536456,30.082608,1.794,0.988,406.608,791.484,0.932,28.283,1.6936,2.184,75.20188,0.5185674
RbBeI3,40.0,4.4,10.8,95.0364,2.074,1.932644,8.9707216,20.578908,2.1,1.444,606.63,1014.99,0.566,42.1586,3.64,6.684,85.78,0.521094
RbBeN,16.0,3.0,6.0,36.164,1.81,0.13864,9.34464266667,25.03398,2.03666666667,1.28333333333,645.25,1259.885,1.076,25.5423333333,1.54366666667,3.5,122.9976,0.8640866
RbBeP,18.6666666667,3.33333333333,6.0,41.8173333333,1.52666666667,0.410806666667,7.995506,21.7567133333,2.12,1.41,729.966666667,1418.65,0.985666666667,23.7756666667,1.73433333333,3.59333333333,126.2,0.864783333333
RbBeSb,30.6666666667,4.0,6.0,72.094,1.48,0.51864,7.369406,20.7102133333,2.20666666667,1.51333333333,925.459333333,1854.15,0.798333333333,24.2443333333,3.359,9.94666666667,144.723333333,0.945
RbBr,36.0,4.5,9.0,82.685,1.89,1.92546,7.995464,24.44025,2.44,1.66,289.2,646.55,0.4185,53.375,2.326,3.995,41.9625,0.29161
RbCaAs,30.0,4.33333333333,6.0,66.8233333333,1.33333333333,0.431973333333,6.69296266667,19.25014,2.39666666667,1.69666666667,839.25,1202.48333333,0.446333333333,27.2096666667,2.93633333333,12.81,85.4233333333,1.03133333333
RbCaBr3,32.4,4.2,10.8,73.05,2.14,2.116184,9.1463376,20.786844,2.178,1.48,445.09,742.83,0.4864,56.8118,2.4884,5.626,53.609,0.519132
RbCaCl3,21.6,3.6,10.8,46.38,2.26,2.267384,9.8386356,22.120404,2.118,1.378,388.51,687.126,0.4894,31.7672,2.5448,4.066,50.894,0.5184534
RbCaF3,16.8,3.0,10.8,36.51,2.752,2.136584,12.5117376,28.814724,1.95,1.138,317.608,594.684,0.6964,30.1802,1.634,2.302,46.73588,0.5185674
RbCaI3,43.2,4.8,10.8,101.25,1.96,1.932644,8.3288136,19.311024,2.256,1.594,517.63,818.19,0.3304,44.0558,3.5804,6.802,57.314,0.521094
RbCaN,21.3333333333,3.66666666667,6.0,46.52,1.62,0.13864,8.274796,22.92084,2.29666666667,1.53333333333,496.916666667,931.885,0.683333333333,28.7043333333,1.44433333333,3.69666666667,75.5542666667,0.8640866
RbCaP,24.0,4.0,6.0,52.1733333333,1.33666666667,0.410806666667,6.92565933333,19.6435733333,2.38,1.66,581.633333333,1090.65,0.593,26.9376666667,1.635,3.79,78.7566666667,0.864783333333
RbCaSb,36.0,4.66666666667,6.0,82.45,1.29,0.51864,6.29955933333,18.5970733333,2.46666666667,1.76333333333,777.126,1526.15,0.405666666667,27.4063333333,3.25966666667,10.1433333333,97.28,0.945
RbCdAs,39.3333333333,4.66666666667,9.33333333333,90.93,1.56333333333,0.431973333333,7.65318266667,20.9290033333,2.35333333333,1.58333333333,665.606333333,963.483333333,0.307666666667,27.24,5.303,12.0633333333,67.1566666667,0.684
RbCdBr3,38.0,4.4,12.8,87.514,2.278,2.116184,9.7224696,21.794162,2.152,1.412,340.9038,599.43,0.4032,56.83,3.9084,5.178,42.649,0.310732
RbCdCl3,27.2,3.8,12.8,60.844,2.398,2.267384,10.4147676,23.127722,2.092,1.31,284.3238,543.726,0.4062,31.7854,3.9648,3.618,39.934,0.3100534
RbCdF3,22.4,3.2,12.8,50.974,2.89,2.136584,13.0878696,29.822042,1.924,1.07,213.4218,451.284,0.6132,30.1984,3.054,1.854,35.77588,0.3101674
RbCdI3,48.8,5.0,12.8,115.714,2.098,1.932644,8.9049456,20.318342,2.23,1.526,413.4438,674.79,0.2472,44.074,5.0004,6.354,46.354,0.312694
RbCdN,30.6666666667,4.0,9.33333333333,70.6266666667,1.85,0.13864,9.235016,24.5997033333,2.25333333333,1.42,323.273,692.885,0.544666666667,28.7346666667,3.811,2.95,57.2876,0.516753266667
RbCdP,33.3333333333,4.33333333333,9.33333333333,76.28,1.56666666667,0.410806666667,7.88587933333,21.3224366667,2.33666666667,1.54666666667,407.989666667,851.65,0.454333333333,26.968,4.00166666667,3.04333333333,60.49,0.51745
RbCdSb,45.3333333333,5.0,9.33333333333,106.556666667,1.52,0.51864,7.25977933333,20.2759366667,2.42333333333,1.65,603.482333333,1287.15,0.267,27.4366666667,5.62633333333,9.39666666667,79.0133333333,0.597666666667
RbCl,27.0,4.0,9.0,60.46,1.99,2.05146,8.572379,25.55155,2.39,1.575,242.05,600.13,0.421,32.5045,2.373,2.695,39.7,0.2910445
RbF,23.0,3.5,9.0,52.235,2.4,1.94246,10.799964,31.13015,2.25,1.375,182.965,523.095,0.5935,31.182,1.614,1.225,36.2349,0.2911395
RbHgAs,50.0,5.0,9.33333333333,120.33,1.63333333333,0.431973333333,8.13440933333,21.5451666667,2.37,1.55666666667,545.640333333,826.689666667,0.277333333333,27.8943333333,6.931,10.7266666667,53.6333333333,0.389133333333
RbHgBr3,44.4,4.6,12.8,105.154,2.32,2.116184,10.0112056,22.16386,2.162,1.396,268.9242,517.3538,0.385,57.2226,4.8852,4.376,34.535,0.133812
RbHgCl3,33.6,4.0,12.8,78.484,2.44,2.267384,10.7035036,23.49742,2.102,1.294,212.3442,461.6498,0.388,32.178,4.9416,2.816,31.82,0.1331334
RbHgF3,28.8,3.4,12.8,68.614,2.932,2.136584,13.3766056,30.19174,1.934,1.054,141.4422,369.2078,0.595,30.591,4.0308,1.052,27.66188,0.1332474
RbHgI3,55.2,5.2,12.8,133.354,2.14,1.932644,9.1936816,20.68804,2.24,1.51,341.4642,592.7138,0.229,44.4666,5.9772,5.552,38.24,0.135774
RbHgN,41.3333333333,4.33333333333,9.33333333333,100.026666667,1.92,0.13864,9.71624266667,25.2158666667,2.27,1.39333333333,203.307,556.091333333,0.514333333333,29.389,5.439,1.61333333333,43.7642666667,0.2218866
RbHgP,44.0,4.66666666667,9.33333333333,105.68,1.63666666667,0.410806666667,8.367106,21.9386,2.35333333333,1.52,288.023666667,714.856333333,0.424,27.6223333333,5.62966666667,1.70666666667,46.9666666667,0.222583333333
RbHgSb,56.0,5.33333333333,9.33333333333,135.956666667,1.59,0.51864,7.741006,20.8921,2.44,1.62333333333,483.516333333,1150.35633333,0.236666666667,28.091,7.25433333333,8.06,65.49,0.3028
RbI,45.0,5.0,9.0,106.185,1.74,1.77251,7.314194,23.2104,2.505,1.755,349.65,709.35,0.2885,42.745,3.236,4.975,45.05,0.293245
RbMgAs,27.3333333333,4.0,6.0,61.5666666667,1.43666666667,0.431973333333,7.20398766667,20.3046566667,2.20333333333,1.58333333333,775.25,1071.15,0.571666666667,26.8563333333,2.999,12.8633333333,76.4,0.881333333333
RbMgBr3,30.8,4.0,10.8,69.896,2.202,2.116184,9.4529526,21.419554,2.062,1.412,406.69,664.03,0.5616,56.5998,2.526,5.658,48.195,0.429132
RbMgCl3,20.0,3.4,10.8,43.226,2.322,2.267384,10.1452506,22.753114,2.002,1.31,350.11,608.326,0.5646,31.5552,2.5824,4.098,45.48,0.4284534
RbMgF3,15.2,2.8,10.8,33.356,2.814,2.136584,12.8183526,29.447434,1.834,1.07,279.208,515.884,0.7716,29.9682,1.6716,2.334,41.32188,0.4285674
RbMgI3,41.6,4.6,10.8,98.096,2.022,1.932644,8.6354286,19.943734,2.14,1.526,479.23,739.39,0.4056,43.8438,3.618,6.834,51.9,0.431094
RbMgN,18.6666666667,3.33333333333,6.0,41.2633333333,1.72333333333,0.13864,8.785821,23.9753566667,2.10333333333,1.42,432.916666667,800.551666667,0.808666666667,28.351,1.507,3.75,66.5309333333,0.7140866
RbMgP,21.3333333333,3.66666666667,6.0,46.9166666667,1.44,0.410806666667,7.43668433333,20.69809,2.18666666667,1.54666666667,517.633333333,959.316666667,0.718333333333,26.5843333333,1.69766666667,3.84333333333,69.7333333333,0.714783333333
RbMgSb,33.3333333333,4.33333333333,6.0,77.1933333333,1.39333333333,0.51864,6.81058433333,19.65159,2.27333333333,1.65,713.126,1394.81666667,0.531,27.053,3.32233333333,10.1966666667,88.2566666667,0.795
RbSrAs,36.0,4.66666666667,6.0,82.67,1.31666666667,0.431973333333,6.553526,18.9696,2.45666666667,1.75,817.583333333,1166.81666667,0.332666666667,27.4966666667,3.29633333333,12.63,79.5,0.479
RbSrBr3,36.0,4.4,10.8,82.558,2.13,2.116184,9.0626756,20.61852,2.214,1.512,432.09,721.43,0.4182,56.984,2.7044,5.518,50.055,0.187732
RbSrCl3,25.2,3.8,10.8,55.888,2.25,2.267384,9.7549736,21.95208,2.154,1.41,375.51,665.726,0.4212,31.9394,2.7608,3.958,47.34,0.1870534
RbSrF3,20.4,3.2,10.8,46.018,2.742,2.136584,12.4280756,28.6464,1.986,1.17,304.608,573.284,0.6282,30.3524,1.85,2.194,43.18188,0.1871674
RbSrI3,46.8,5.0,10.8,110.758,1.95,1.932644,8.2451516,19.1427,2.292,1.626,504.63,796.79,0.2622,44.228,3.7964,6.694,53.76,0.189694
RbSrN,27.3333333333,4.0,6.0,62.3666666667,1.60333333333,0.13864,8.13535933333,22.6403,2.35666666667,1.58666666667,475.25,896.218333333,0.569666666667,28.9913333333,1.80433333333,3.51666666667,69.6309333333,0.311753266667
RbSrP,30.0,4.33333333333,6.0,68.02,1.32,0.410806666667,6.78622266667,19.3630333333,2.44,1.71333333333,559.966666667,1054.98333333,0.479333333333,27.2246666667,1.995,3.61,72.8333333333,0.31245
RbSrSb,42.0,5.0,6.0,98.2966666667,1.27333333333,0.51864,6.16012266667,18.3165333333,2.52666666667,1.81666666667,755.459333333,1490.48333333,0.292,27.6933333333,3.61966666667,9.96333333333,91.3566666667,0.392666666667
RbZnAs,33.3333333333,4.33333333333,9.33333333333,75.26,1.55,0.431973333333,7.78664233333,21.28103,2.29666666667,1.51666666667,698.425666667,1010.15,0.36,27.03,4.79966666667,12.4133333333,72.3,0.748
RbZnBr3,34.4,4.2,12.8,78.112,2.27,2.116184,9.8025454,22.005378,2.118,1.372,360.5954,627.43,0.4346,56.704,3.6064,5.388,45.735,0.349132
RbZnCl3,23.6,3.6,12.8,51.442,2.39,2.267384,10.4948434,23.338938,2.058,1.27,304.0154,571.726,0.4376,31.6594,3.6628,3.828,43.02,0.3484534
RbZnF3,18.8,3.0,12.8,41.572,2.882,2.136584,13.1679454,30.033258,1.89,1.03,233.1134,479.284,0.6446,30.0724,2.752,2.064,38.86188,0.3485674
RbZnI3,45.2,4.8,12.8,106.312,2.09,1.932644,8.9850214,20.529558,2.196,1.486,433.1354,702.79,0.2786,43.948,4.6984,6.564,49.44,0.351094
RbZnN,24.6666666667,3.66666666667,9.33333333333,54.9566666667,1.83666666667,0.13864,9.36847566667,24.95173,2.19666666667,1.35333333333,356.092333333,739.551666667,0.597,28.5246666667,3.30766666667,3.3,62.4309333333,0.580753266667
RbZnP,27.3333333333,4.0,9.33333333333,60.61,1.55333333333,0.410806666667,8.019339,21.6744633333,2.28,1.48,440.809,898.316666667,0.506666666667,26.758,3.49833333333,3.39333333333,65.6333333333,0.58145
RbZnSb,39.3333333333,4.66666666667,9.33333333333,90.8866666667,1.50666666667,0.51864,7.393239,20.6279633333,2.36666666667,1.58333333333,636.301666667,1333.81666667,0.319333333333,27.2266666667,5.123,9.74666666667,84.1566666667,0.661666666667
Sc2O3,13.2,2.8,10.8,27.584,2.608,0.9518729,10.795426,26.192568,1.772,1.02,758.276,1297.7728,0.778,27.8348,2.0514,6.5332,123.96654,0.06336044
Sc2S3,18.0,3.4,10.8,37.226,2.092,1.321472,8.840602,19.122636,1.94,1.26,958.676,1674.316,0.652,23.828,2.37,7.438,127.92,0.064814
Sc2Se3,28.8,4.0,10.8,65.36,2.074,1.2872,8.47603,17.833908,2.0,1.344,1022.03,1818.55,0.4198,25.4258,4.0854,9.64,137.712,0.07544
Sc2Te3,39.6,4.6,10.8,94.544,1.804,1.25768,8.030356,16.279908,2.096,1.458,1159.256,2000.35,0.3484,25.646,4.938,16.9,152.298,0.0773
ScAs,27.0,4.0,9.0,59.94,1.77,0.499,8.175045,15.694485,2.0,1.395,1452.15,1999.15,0.4485,25.08,4.356,21.85,168.6,0.33
ScBr3,31.5,4.0,13.5,71.165,2.56,2.57075,10.5007225,19.3931925,1.925,1.275,653.0,1026.25,0.4975,63.1475,3.08625,8.35,87.24375,0.040415
ScCl3,18.0,3.25,13.5,37.8275,2.71,2.75975,11.366095,21.0601425,1.85,1.1475,582.275,956.62,0.50125,31.84175,3.15675,6.4,83.85,0.03956675
ScF3,12.0,2.5,13.5,25.49,3.325,2.59625,14.7074725,29.4280425,1.64,0.8475,493.6475,841.0675,0.76,29.858,2.01825,4.195,78.65235,0.03970925
ScI3,45.0,4.75,13.5,106.415,2.335,2.341325,9.4788175,17.5484175,2.0225,1.4175,743.675,1120.45,0.3025,47.2025,4.45125,9.82,91.875,0.0428675
ScN,14.0,3.0,9.0,29.485,2.2,0.059,10.547795,21.200535,1.85,1.15,938.65,1593.2525,0.804,27.322,2.118,8.18,153.7964,0.0791299
ScP,18.0,3.5,9.0,37.965,1.775,0.46725,8.52409,16.284635,1.975,1.34,1065.725,1831.4,0.6685,24.672,2.404,8.32,158.6,0.080175
ScSb,36.0,4.5,9.0,83.38,1.705,0.629,7.58494,14.714885,2.105,1.495,1358.964,2484.65,0.3875,25.375,4.841,17.85,186.385,0.2005
Sr3As2,36.0,4.6,7.2,82.54,1.442,0.324,7.33235,14.05374,2.234,1.62,1066.15,1345.75,0.3152,25.93,3.8688,15.88,95.1,0.4126
Sr3N2,25.6,3.8,7.2,58.176,1.786,-0.028,9.23055,18.45858,2.114,1.424,655.35,1021.032,0.5996,27.7236,2.0784,4.944,83.25712,0.21190392
Sr3P2,28.8,4.2,7.2,64.96,1.446,0.2986,7.611586,14.52586,2.214,1.576,757.01,1211.55,0.4912,25.6036,2.3072,5.056,87.1,0.21274
Sr3Sb2,43.2,5.0,7.2,101.292,1.39,0.428,6.860266,13.27006,2.318,1.7,991.6012,1734.15,0.2664,26.166,4.2568,12.68,109.328,0.309
SrAl2O4,13.7142857143,2.71428571429,13.1428571429,29.3685714286,2.56142857143,0.960926571429,10.3055122857,27.0245142857,1.75,0.991428571429,447.790857143,1085.02885714,0.824571428571,27.5288571429,1.96371428571,4.32685714286,104.591942857,0.727724228571
SrAl2S4,18.2857142857,3.28571428571,13.1428571429,38.5514285714,2.07,1.31292571429,8.44377514286,20.2912457143,1.91,1.22,638.648,1443.64142857,0.704571428571,23.7128571429,2.26714285714,5.18857142857,108.357142857,0.729108571429
SrAl2Se4,28.5714285714,3.85714285714,13.1428571429,65.3457142857,2.05285714286,1.28028571429,8.09656371429,19.0638857143,1.96714285714,1.3,698.985142857,1581.00714286,0.483428571429,25.2345714286,3.90085714286,7.28571428571,117.682857143,0.739228571429
SrAl2Te4,38.8571428571,4.42857142857,13.1428571429,93.14,1.79571428571,1.25217142857,7.67211228571,17.5838857143,2.05857142857,1.40857142857,829.676571429,1754.15,0.415428571429,25.4442857143,4.71285714286,14.2,131.574285714,0.741
SrBr2,36.0,4.33333333333,12.0,82.4733333333,2.29,2.24333333333,9.77415,18.0707,2.06333333333,1.41333333333,527.35,771.35,0.418,59.39,2.95666666667,6.53333333333,55.45,0.11848
SrCl2,24.0,3.66666666667,12.0,52.84,2.42333333333,2.41133333333,10.54337,19.5524333333,1.99666666667,1.3,464.483333333,709.456666667,0.421333333333,31.5626666667,3.01933333333,4.8,52.4333333333,0.117726
SrF2,18.6666666667,3.0,12.0,41.8733333333,2.97,2.266,13.5134833333,26.9905666667,1.81,1.03333333333,385.703333333,606.743333333,0.651333333333,29.7993333333,2.00733333333,2.84,47.8132,0.117852666667
SrGa2O4,18.8571428571,3.0,13.1428571429,41.58,2.61857142857,0.920640857143,10.3093788571,27.5064,1.75857142857,0.988571428571,267.631314286,1002.17171429,0.674857142857,28.0517142857,2.87914285714,2.86685714286,94.6662285714,0.166581371429
SrGa2S4,23.4285714286,3.57142857143,13.1428571429,50.7628571429,2.12714285714,1.27264,8.44764171429,20.7731314286,1.91857142857,1.21714285714,458.488457143,1360.78428571,0.554857142857,24.2357142857,3.18257142857,3.72857142857,98.4314285714,0.167965714286
SrGa2Se4,33.7142857143,4.14285714286,13.1428571429,77.5571428571,2.11,1.24,8.10043028571,19.5457714286,1.97571428571,1.29714285714,518.8256,1498.15,0.333714285714,25.7574285714,4.81628571429,5.82571428571,107.757142857,0.178085714286
SrGa2Te4,44.0,4.71428571429,13.1428571429,105.351428571,1.85285714286,1.21188571429,7.67597885714,18.0657714286,2.06714285714,1.40571428571,649.517028571,1671.29285714,0.265714285714,25.9671428571,5.62828571429,12.74,121.648571429,0.179857142857
SrI2,48.0,5.0,12.0,113.806666667,2.09,2.0394,8.86579,16.4309,2.15,1.54,607.95,855.083333333,0.244666666667,45.2166666667,4.17,7.84,59.5666666667,0.12066
SrIn2O4,24.0,3.28571428571,13.1428571429,54.46,2.61,0.920640857143,10.2485385714,27.0364428571,1.77571428571,1.04285714286,303.87,944.457428571,0.634857142857,28.2545714286,3.28085714286,2.20114285714,86.1776571429,0.283724228571
SrIn2S4,28.5714285714,3.85714285714,13.1428571429,63.6428571429,2.11857142857,1.27264,8.38680142857,20.3031742857,1.93571428571,1.27142857143,494.727142857,1303.07,0.514857142857,24.4385714286,3.58428571429,3.06285714286,89.9428571429,0.285108571429
SrIn2Se4,38.8571428571,4.42857142857,13.1428571429,90.4371428571,2.10142857143,1.24,8.03959,19.0758142857,1.99285714286,1.35142857143,555.064285714,1440.43571429,0.293714285714,25.9602857143,5.218,5.16,99.2685714286,0.295228571429
SrIn2Te4,49.1428571429,5.0,13.1428571429,118.231428571,1.84428571429,1.21188571429,7.61513857143,17.5958142857,2.08428571429,1.46,685.755714286,1613.57857143,0.225714285714,26.17,6.03,12.0742857143,113.16,0.297
SrLa2O4,26.2857142857,3.57142857143,10.2857142857,61.3457142857,2.41571428571,0.977783714286,10.1886928571,24.8046428571,1.91857142857,1.19142857143,521.984285714,1355.02885714,0.624,28.3602857143,2.94828571429,3.04114285714,135.669085714,0.0891528