Compound,type,st,a1,a2,a3,n1,n2,n3,Ecoh,BM,bandgap,formula
ABX3_K2LiAlF6_Rb_Ca_I,ABX3,K2LiAlF6,Rb,Ca,I,2,2,6,2.18828,14.65,0.6217,RbCaI3
ABX3_K2LiAlF6_Rb_Sr_F,ABX3,K2LiAlF6,Rb,Sr,F,2,2,6,4.14565,33.3,2.4075,RbSrF3
ABX3_K2LiAlF6_Rb_Sr_Cl,ABX3,K2LiAlF6,Rb,Sr,Cl,2,2,6,3.13872,12.35,1.9666,RbSrCl3
ABX3_K2LiAlF6_Rb_Sr_Br,ABX3,K2LiAlF6,Rb,Sr,Br,2,2,6,2.80373,17.3,1.3541,RbSrBr3
ABX3_K2LiAlF6_Rb_Sr_I,ABX3,K2LiAlF6,Rb,Sr,I,2,2,6,2.37156,15,1.021,RbSrI3
ABX3_K2LiAlF6_Rb_Ba_F,ABX3,K2LiAlF6,Rb,Ba,F,2,2,6,4.41515,31.7,3.3589,RbBaF3
ABX3_K2LiAlF6_Rb_Ba_Cl,ABX3,K2LiAlF6,Rb,Ba,Cl,2,2,6,3.41545,24.05,2.7985,RbBaCl3
ABX3_K2LiAlF6_Rb_Ba_Br,ABX3,K2LiAlF6,Rb,Ba,Br,2,2,6,3.06584,15.7,2.1363,RbBaBr3
ABX3_K2LiAlF6_Rb_Ba_I,ABX3,K2LiAlF6,Rb,Ba,I,2,2,6,2.66093,14.45,1.514,RbBaI3
ABX3_K2LiAlF6_Rb_Zn_F,ABX3,K2LiAlF6,Rb,Zn,F,2,2,6,2.4659,18.45,0.023,RbZnF3
ABX3_K2LiAlF6_Rb_Zn_Cl,ABX3,K2LiAlF6,Rb,Zn,Cl,2,2,6,1.77665,15,0.0044,RbZnCl3
ABX3_K2LiAlF6_Rb_Zn_Br,ABX3,K2LiAlF6,Rb,Zn,Br,2,2,6,1.47709,26.35,0,RbZnBr3
ABX3_K2LiAlF6_Rb_Zn_I,ABX3,K2LiAlF6,Rb,Zn,I,2,2,6,1.58116,9.25,0.0121,RbZnI3
ABX3_K2LiAlF6_Rb_Cd_F,ABX3,K2LiAlF6,Rb,Cd,F,2,2,6,2.64588,19.65,0.0182,RbCdF3
ABX3_K2LiAlF6_Rb_Cd_Cl,ABX3,K2LiAlF6,Rb,Cd,Cl,2,2,6,1.88122,19.7,0.0072,RbCdCl3
ABX3_K2LiAlF6_Rb_Cd_Br,ABX3,K2LiAlF6,Rb,Cd,Br,2,2,6,1.55742,2.5,0,RbCdBr3
ABX3_K2LiAlF6_Rb_Cd_I,ABX3,K2LiAlF6,Rb,Cd,I,2,2,6,1.47535,10,0,RbCdI3
ABX3_K2LiAlF6_Rb_Hg_F,ABX3,K2LiAlF6,Rb,Hg,F,2,2,6,2.32919,15,0.0148,RbHgF3
ABX3_K2LiAlF6_Rb_Hg_Cl,ABX3,K2LiAlF6,Rb,Hg,Cl,2,2,6,1.68746,4,0.003,RbHgCl3
ABX3_K2LiAlF6_Rb_Hg_Br,ABX3,K2LiAlF6,Rb,Hg,Br,2,2,6,1.53089,16.15,0,RbHgBr3
ABX3_K2LiAlF6_Rb_Hg_I,ABX3,K2LiAlF6,Rb,Hg,I,2,2,6,1.24008,4.3,0,RbHgI3
ABX3_K2LiAlF6_Cs_Be_F,ABX3,K2LiAlF6,Cs,Be,F,2,2,6,2.55611,29.05,0,CsBeF3
ABX3_K2LiAlF6_Cs_Be_Cl,ABX3,K2LiAlF6,Cs,Be,Cl,2,2,6,1.76813,10.75,0.0456,CsBeCl3
ABX3_K2LiAlF6_Cs_Be_Br,ABX3,K2LiAlF6,Cs,Be,Br,2,2,6,1.49645,0.3,0,CsBeBr3
ABX3_K2LiAlF6_Cs_Be_I,ABX3,K2LiAlF6,Cs,Be,I,2,2,6,1.43811,5.8,0,CsBeI3
ABX3_K2LiAlF6_Cs_Mg_F,ABX3,K2LiAlF6,Cs,Mg,F,2,2,6,2.97872,30,0,CsMgF3
ABX3_K2LiAlF6_Cs_Mg_Cl,ABX3,K2LiAlF6,Cs,Mg,Cl,2,2,6,2.0278,13.05,0.0104,CsMgCl3
ABX3_K2LiAlF6_Cs_Mg_Br,ABX3,K2LiAlF6,Cs,Mg,Br,2,2,6,1.75384,13.1,0,CsMgBr3
ABX3_K2LiAlF6_Cs_Mg_I,ABX3,K2LiAlF6,Cs,Mg,I,2,2,6,1.46839,0.7,0,CsMgI3
ABX3_K2LiAlF6_Cs_Ca_F,ABX3,K2LiAlF6,Cs,Ca,F,2,2,6,3.77312,31.5,1.3815,CsCaF3
ABX3_K2LiAlF6_Cs_Ca_Cl,ABX3,K2LiAlF6,Cs,Ca,Cl,2,2,6,2.74714,19.5,0.6882,CsCaCl3
ABX3_K2LiAlF6_Cs_Ca_Br,ABX3,K2LiAlF6,Cs,Ca,Br,2,2,6,2.49161,19.5,0.617,CsCaBr3
ABX3_K2LiAlF6_Cs_Ca_I,ABX3,K2LiAlF6,Cs,Ca,I,2,2,6,2.04844,20.35,0.2341,CsCaI3
ABX3_K2LiAlF6_Cs_Sr_F,ABX3,K2LiAlF6,Cs,Sr,F,2,2,6,3.90654,27.35,1.275,CsSrF3
ABX3_K2LiAlF6_Cs_Sr_Cl,ABX3,K2LiAlF6,Cs,Sr,Cl,2,2,6,2.95192,20.05,1.169,CsSrCl3
ABX3_K2LiAlF6_Cs_Sr_Br,ABX3,K2LiAlF6,Cs,Sr,Br,2,2,6,2.66656,13,1.0888,CsSrBr3
ABX3_K2LiAlF6_Cs_Sr_I,ABX3,K2LiAlF6,Cs,Sr,I,2,2,6,2.23275,21.05,0.5825,CsSrI3
ABX3_K2LiAlF6_Cs_Ba_F,ABX3,K2LiAlF6,Cs,Ba,F,2,2,6,4.18909,27,2.1869,CsBaF3
ABX3_K2LiAlF6_Cs_Ba_Cl,ABX3,K2LiAlF6,Cs,Ba,Cl,2,2,6,3.23741,20.55,1.9983,CsBaCl3
ABX3_K2LiAlF6_Cs_Ba_Br,ABX3,K2LiAlF6,Cs,Ba,Br,2,2,6,2.89596,23.9,1.6572,CsBaBr3
ABX3_K2LiAlF6_Cs_Ba_I,ABX3,K2LiAlF6,Cs,Ba,I,2,2,6,2.51064,9.95,1.3423,CsBaI3
ABX3_K2LiAlF6_Cs_Zn_F,ABX3,K2LiAlF6,Cs,Zn,F,2,2,6,2.42789,15,0.0411,CsZnF3
ABX3_K2LiAlF6_Cs_Zn_Cl,ABX3,K2LiAlF6,Cs,Zn,Cl,2,2,6,1.66224,8.85,0.0055,CsZnCl3
ABX3_K2LiAlF6_Cs_Zn_Br,ABX3,K2LiAlF6,Cs,Zn,Br,2,2,6,1.44994,4.35,0,CsZnBr3
ABX3_K2LiAlF6_Cs_Cd_F,ABX3,K2LiAlF6,Cs,Cd,F,2,2,6,2.54385,24.6,0.0335,CsCdF3
ABX3_K2LiAlF6_Cs_Cd_Cl,ABX3,K2LiAlF6,Cs,Cd,Cl,2,2,6,1.79065,11.65,0.0525,CsCdCl3
ABX3_K2LiAlF6_Cs_Cd_Br,ABX3,K2LiAlF6,Cs,Cd,Br,2,2,6,1.59511,11.25,0.0171,CsCdBr3
ABX3_K2LiAlF6_Cs_Cd_I,ABX3,K2LiAlF6,Cs,Cd,I,2,2,6,1.29398,2.7,0.0033,CsCdI3
ABX3_K2LiAlF6_Cs_Hg_F,ABX3,K2LiAlF6,Cs,Hg,F,2,2,6,2.31868,17.65,0.028,CsHgF3
ABX3_K2LiAlF6_Cs_Hg_Cl,ABX3,K2LiAlF6,Cs,Hg,Cl,2,2,6,1.5799,0.05,0.0033,CsHgCl3
ABX3_K2LiAlF6_Cs_Hg_I,ABX3,K2LiAlF6,Cs,Hg,I,2,2,6,1.22905,4.45,0,CsHgI3
ABX3_NaNbO3_Li_Be_F,ABX3,NaNbO3,Li,Be,F,2,2,6,5.12373,106.8,7.5972,LiBeF3
ABX3_NaNbO3_Li_Be_Cl,ABX3,NaNbO3,Li,Be,Cl,2,2,6,3.39913,38.8,4.3809,LiBeCl3
ABX3_NaNbO3_Li_Be_Br,ABX3,NaNbO3,Li,Be,Br,2,2,6,2.89251,51.15,1.0447,LiBeBr3
ABX3_NaNbO3_Li_Be_I,ABX3,NaNbO3,Li,Be,I,2,2,6,2.42836,15.4,2.336,LiBeI3
ABX3_NaNbO3_Li_Mg_F,ABX3,NaNbO3,Li,Mg,F,2,2,6,4.93969,75.7,5.9093,LiMgF3
ABX3_NaNbO3_Li_Mg_Cl,ABX3,NaNbO3,Li,Mg,Cl,2,2,6,3.4131,24.55,3.9768,LiMgCl3
ABX3_NaNbO3_Li_Mg_Br,ABX3,NaNbO3,Li,Mg,Br,2,2,6,2.94155,24.9,2.8061,LiMgBr3
ABX3_NaNbO3_Li_Mg_I,ABX3,NaNbO3,Li,Mg,I,2,2,6,2.43302,17.35,1.203,LiMgI3
ABX3_NaNbO3_Li_Ca_F,ABX3,NaNbO3,Li,Ca,F,2,2,6,5.03251,49,4.9182,LiCaF3
ABX3_NaNbO3_Li_Ca_Cl,ABX3,NaNbO3,Li,Ca,Cl,2,2,6,3.76199,24.3,3.6989,LiCaCl3
ABX3_NaNbO3_Li_Ca_Br,ABX3,NaNbO3,Li,Ca,Br,2,2,6,3.33269,31,2.9406,LiCaBr3
ABX3_NaNbO3_Li_Ca_I,ABX3,NaNbO3,Li,Ca,I,2,2,6,2.85668,14.75,2.2693,LiCaI3
ABX3_NaNbO3_Li_Sr_F,ABX3,NaNbO3,Li,Sr,F,2,2,6,4.84529,41.15,4.3216,LiSrF3
ABX3_NaNbO3_Li_Sr_Cl,ABX3,NaNbO3,Li,Sr,Cl,2,2,6,3.67782,28,3.4876,LiSrCl3
ABX3_NaNbO3_Li_Sr_Br,ABX3,NaNbO3,Li,Sr,Br,2,2,6,3.27118,25.7,2.8515,LiSrBr3
ABX3_NaNbO3_Li_Ba_F,ABX3,NaNbO3,Li,Ba,F,2,2,6,4.73874,31.05,3.4255,LiBaF3
ABX3_NaNbO3_Li_Ba_Cl,ABX3,NaNbO3,Li,Ba,Cl,2,2,6,3.66836,18.4,3.2515,LiBaCl3
ABX3_NaNbO3_Li_Ba_Br,ABX3,NaNbO3,Li,Ba,Br,2,2,6,3.28873,19.85,2.7125,LiBaBr3
ABX3_NaNbO3_Li_Zn_F,ABX3,NaNbO3,Li,Zn,F,2,2,6,4.05347,74.05,3.1644,LiZnF3
ABX3_NaNbO3_Li_Zn_Cl,ABX3,NaNbO3,Li,Zn,Cl,2,2,6,2.83103,37.55,1.6575,LiZnCl3
ABX3_NaNbO3_Li_Zn_I,ABX3,NaNbO3,Li,Zn,I,2,2,6,1.99849,19.2,0.4038,LiZnI3
ABX3_NaNbO3_Li_Cd_F,ABX3,NaNbO3,Li,Cd,F,2,2,6,3.77126,59.05,2.5933,LiCdF3
ABX3_NaNbO3_Li_Cd_Cl,ABX3,NaNbO3,Li,Cd,Cl,2,2,6,2.73276,35.7,1.8536,LiCdCl3
ABX3_NaNbO3_Li_Cd_Br,ABX3,NaNbO3,Li,Cd,Br,2,2,6,2.36698,22.95,0.8276,LiCdBr3
ABX3_NaNbO3_Li_Cd_I,ABX3,NaNbO3,Li,Cd,I,2,2,6,1.97161,21.5,0.0052,LiCdI3
ABX3_NaNbO3_Li_Hg_F,ABX3,NaNbO3,Li,Hg,F,2,2,6,3.14877,52.5,0.4099,LiHgF3
ABX3_NaNbO3_Li_Hg_Cl,ABX3,NaNbO3,Li,Hg,Cl,2,2,6,2.29071,28,1.6094,LiHgCl3
ABX3_NaNbO3_Li_Hg_Br,ABX3,NaNbO3,Li,Hg,Br,2,2,6,1.99155,26.6,1.0421,LiHgBr3
ABX3_NaNbO3_Na_Be_F,ABX3,NaNbO3,Na,Be,F,2,2,6,5.04394,107.25,7.5873,NaBeF3
ABX3_NaNbO3_Na_Be_Cl,ABX3,NaNbO3,Na,Be,Cl,2,2,6,3.40761,38.8,4.28,NaBeCl3
ABX3_NaNbO3_Na_Be_Br,ABX3,NaNbO3,Na,Be,Br,2,2,6,2.93819,30.85,3.0715,NaBeBr3
ABX3_NaNbO3_Na_Be_I,ABX3,NaNbO3,Na,Be,I,2,2,6,2.44848,22.55,2.3974,NaBeI3
ABX3_NaNbO3_Na_Mg_F,ABX3,NaNbO3,Na,Mg,F,2,2,6,4.92441,75.3,6.04,NaMgF3
ABX3_NaNbO3_Na_Mg_Cl,ABX3,NaNbO3,Na,Mg,Cl,2,2,6,3.42903,32.15,4.1481,NaMgCl3
ABX3_NaNbO3_Na_Mg_Br,ABX3,NaNbO3,Na,Mg,Br,2,2,6,2.96137,26.95,2.7681,NaMgBr3
ABX3_NaNbO3_Na_Mg_I,ABX3,NaNbO3,Na,Mg,I,2,2,6,2.45631,18.85,1.2145,NaMgI3
ABX3_NaNbO3_Na_Ca_F,ABX3,NaNbO3,Na,Ca,F,2,2,6,5.05199,49.05,5.0603,NaCaF3
ABX3_NaNbO3_Na_Ca_Br,ABX3,NaNbO3,Na,Ca,Br,2,2,6,3.36178,16.95,3.0686,NaCaBr3
ABX3_NaNbO3_Na_Ca_I,ABX3,NaNbO3,Na,Ca,I,2,2,6,2.88672,14.95,2.3969,NaCaI3
ABX3_NaNbO3_Na_Sr_F,ABX3,NaNbO3,Na,Sr,F,2,2,6,4.87342,43.4,4.4576,NaSrF3
ABX3_NaNbO3_Na_Ba_F,ABX3,NaNbO3,Na,Ba,F,2,2,6,4.77205,31.25,3.531,NaBaF3
ABX3_NaNbO3_Na_Ba_Cl,ABX3,NaNbO3,Na,Ba,Cl,2,2,6,3.70337,16.35,3.3313,NaBaCl3
ABX3_NaNbO3_Na_Zn_F,ABX3,NaNbO3,Na,Zn,F,2,2,6,4.05269,78.55,3.2559,NaZnF3
ABX3_NaNbO3_Na_Zn_Cl,ABX3,NaNbO3,Na,Zn,Cl,2,2,6,2.84568,40.1,1.6529,NaZnCl3
ABX3_NaNbO3_Na_Zn_Br,ABX3,NaNbO3,Na,Zn,Br,2,2,6,2.44367,30.3,0.6567,NaZnBr3
ABX3_NaNbO3_Na_Zn_I,ABX3,NaNbO3,Na,Zn,I,2,2,6,2.02074,20.8,0.4761,NaZnI3
ABX3_NaNbO3_Na_Cd_F,ABX3,NaNbO3,Na,Cd,F,2,2,6,3.79193,55.85,2.6619,NaCdF3
ABX3_NaNbO3_Na_Cd_Cl,ABX3,NaNbO3,Na,Cd,Cl,2,2,6,2.75832,35.65,1.8357,NaCdCl3
ABX3_NaNbO3_Na_Cd_Br,ABX3,NaNbO3,Na,Cd,Br,2,2,6,2.39292,22.5,0.8093,NaCdBr3
ABX3_NaNbO3_Na_Cd_I,ABX3,NaNbO3,Na,Cd,I,2,2,6,1.99862,17.95,0.0937,NaCdI3
ABX3_NaNbO3_Na_Hg_F,ABX3,NaNbO3,Na,Hg,F,2,2,6,3.17482,54.8,0.4429,NaHgF3
ABX3_NaNbO3_Na_Hg_Cl,ABX3,NaNbO3,Na,Hg,Cl,2,2,6,2.31945,27.6,1.5857,NaHgCl3
ABX3_NaNbO3_Na_Hg_Br,ABX3,NaNbO3,Na,Hg,Br,2,2,6,2.02011,26.35,1.0773,NaHgBr3
ABX3_NaNbO3_Na_Hg_I,ABX3,NaNbO3,Na,Hg,I,2,2,6,1.70324,17.45,0.8127,NaHgI3
ABX3_NaNbO3_K_Be_F,ABX3,NaNbO3,K,Be,F,2,2,6,4.98392,75.35,7.2142,KBeF3
ABX3_NaNbO3_K_Be_Cl,ABX3,NaNbO3,K,Be,Cl,2,2,6,3.51801,30.85,4.4788,KBeCl3
ABX3_NaNbO3_K_Be_Br,ABX3,NaNbO3,K,Be,Br,2,2,6,3.06279,21.95,3.285,KBeBr3
ABX3_NaNbO3_K_Be_I,ABX3,NaNbO3,K,Be,I,2,2,6,2.58433,23.55,2.5745,KBeI3
ABX3_NaNbO3_K_Mg_F,ABX3,NaNbO3,K,Mg,F,2,2,6,4.95316,68.45,7.0863,KMgF3
ABX3_NaNbO3_K_Mg_Cl,ABX3,NaNbO3,K,Mg,Cl,2,2,6,3.54689,25.3,4.2662,KMgCl3
ABX3_NaNbO3_K_Mg_Br,ABX3,NaNbO3,K,Mg,Br,2,2,6,3.09029,21.5,2.7017,KMgBr3
ABX3_NaNbO3_K_Mg_I,ABX3,NaNbO3,K,Mg,I,2,2,6,2.59689,18.2,1.2176,KMgI3
ABX3_NaNbO3_K_Ca_F,ABX3,NaNbO3,K,Ca,F,2,2,6,5.17073,50.15,6.2262,KCaF3
ABX3_NaNbO3_K_Ca_Cl,ABX3,NaNbO3,K,Ca,Cl,2,2,6,3.9366,32.15,4.8062,KCaCl3
ABX3_NaNbO3_K_Ca_I,ABX3,NaNbO3,K,Ca,I,2,2,6,3.04093,16.3,3.3135,KCaI3
ABX3_NaNbO3_K_Sr_F,ABX3,NaNbO3,K,Sr,F,2,2,6,5.01623,38.5,5.5399,KSrF3
ABX3_NaNbO3_K_Ba_F,ABX3,NaNbO3,K,Ba,F,2,2,6,4.93115,32.3,4.5648,KBaF3
ABX3_NaNbO3_K_Ba_Br,ABX3,NaNbO3,K,Ba,Br,2,2,6,3.49034,21.1,3.6336,KBaBr3
ABX3_NaNbO3_K_Zn_F,ABX3,NaNbO3,K,Zn,F,2,2,6,4.11304,73.4,3.695,KZnF3
ABX3_NaNbO3_K_Zn_Cl,ABX3,NaNbO3,K,Zn,Cl,2,2,6,2.95962,39.2,1.5753,KZnCl3
ABX3_NaNbO3_K_Zn_Br,ABX3,NaNbO3,K,Zn,Br,2,2,6,2.57133,26.7,1.2566,KZnBr3
ABX3_NaNbO3_K_Zn_I,ABX3,NaNbO3,K,Zn,I,2,2,6,2.16178,19.6,0.9742,KZnI3
ABX3_NaNbO3_K_Cd_F,ABX3,NaNbO3,K,Cd,F,2,2,6,3.91134,54.7,3.1076,KCdF3
ABX3_NaNbO3_K_Cd_Cl,ABX3,NaNbO3,K,Cd,Cl,2,2,6,2.89816,36.5,1.7706,KCdCl3
ABX3_NaNbO3_K_Cd_Br,ABX3,NaNbO3,K,Cd,Br,2,2,6,2.53567,22,0.774,KCdBr3
ABX3_NaNbO3_K_Cd_I,ABX3,NaNbO3,K,Cd,I,2,2,6,2.14674,19.2,0.1288,KCdI3
ABX3_NaNbO3_K_Hg_F,ABX3,NaNbO3,K,Hg,F,2,2,6,3.30871,51.8,0.5955,KHgF3
ABX3_NaNbO3_K_Hg_Cl,ABX3,NaNbO3,K,Hg,Cl,2,2,6,2.46708,32.2,1.6897,KHgCl3
ABX3_NaNbO3_K_Hg_Br,ABX3,NaNbO3,K,Hg,Br,2,2,6,2.16943,20.15,1.0898,KHgBr3
ABX3_NaNbO3_K_Hg_I,ABX3,NaNbO3,K,Hg,I,2,2,6,1.8552,16.45,0.7994,KHgI3
ABX3_NaNbO3_Rb_Be_F,ABX3,NaNbO3,Rb,Be,F,2,2,6,4.92815,61.55,6.5725,RbBeF3
ABX3_NaNbO3_Rb_Be_Cl,ABX3,NaNbO3,Rb,Be,Cl,2,2,6,3.51762,31.7,4.4067,RbBeCl3
ABX3_NaNbO3_Rb_Be_Br,ABX3,NaNbO3,Rb,Be,Br,2,2,6,3.07051,22.05,3.2801,RbBeBr3
ABX3_NaNbO3_Rb_Be_I,ABX3,NaNbO3,Rb,Be,I,2,2,6,2.59949,17.25,2.5801,RbBeI3
ABX3_NaNbO3_Rb_Mg_F,ABX3,NaNbO3,Rb,Mg,F,2,2,6,4.88978,70.3,7.0556,RbMgF3
ABX3_NaNbO3_Rb_Mg_Cl,ABX3,NaNbO3,Rb,Mg,Cl,2,2,6,3.54333,28.7,4.1431,RbMgCl3
ABX3_NaNbO3_Rb_Mg_Br,ABX3,NaNbO3,Rb,Mg,Br,2,2,6,3.09658,31.1,2.6247,RbMgBr3
ABX3_NaNbO3_Rb_Mg_I,ABX3,NaNbO3,Rb,Mg,I,2,2,6,2.61185,19.6,1.2009,RbMgI3
ABX3_NaNbO3_Rb_Ca_F,ABX3,NaNbO3,Rb,Ca,F,2,2,6,5.16608,48.1,6.4711,RbCaF3
ABX3_NaNbO3_Rb_Ca_Cl,ABX3,NaNbO3,Rb,Ca,Cl,2,2,6,3.95138,23.6,5.0114,RbCaCl3
ABX3_NaNbO3_Rb_Ca_I,ABX3,NaNbO3,Rb,Ca,I,2,2,6,3.0631,16.3,3.4967,RbCaI3
ABX3_NaNbO3_Rb_Sr_F,ABX3,NaNbO3,Rb,Sr,F,2,2,6,5.02807,37.45,5.781,RbSrF3
ABX3_NaNbO3_Rb_Sr_Cl,ABX3,NaNbO3,Rb,Sr,Cl,2,2,6,3.89051,25.6,4.6792,RbSrCl3
ABX3_NaNbO3_Rb_Ba_F,ABX3,NaNbO3,Rb,Ba,F,2,2,6,4.95321,30.9,4.7955,RbBaF3
ABX3_NaNbO3_Rb_Ba_Cl,ABX3,NaNbO3,Rb,Ba,Cl,2,2,6,3.89745,17.5,4.4023,RbBaCl3
ABX3_NaNbO3_Rb_Ba_I,ABX3,NaNbO3,Rb,Ba,I,2,2,6,3.09553,12.15,3.2926,RbBaI3
ABX3_NaNbO3_Rb_Zn_F,ABX3,NaNbO3,Rb,Zn,F,2,2,6,4.06681,66.05,3.6914,RbZnF3
ABX3_NaNbO3_Rb_Zn_Cl,ABX3,NaNbO3,Rb,Zn,Cl,2,2,6,2.95504,34.85,1.6613,RbZnCl3
ABX3_NaNbO3_Rb_Zn_Br,ABX3,NaNbO3,Rb,Zn,Br,2,2,6,2.57879,30.85,1.4958,RbZnBr3
ABX3_NaNbO3_Rb_Zn_I,ABX3,NaNbO3,Rb,Zn,I,2,2,6,2.17767,15.9,1.1533,RbZnI3
ABX3_NaNbO3_Rb_Cd_F,ABX3,NaNbO3,Rb,Cd,F,2,2,6,3.90655,54.25,3.1743,RbCdF3
ABX3_NaNbO3_Rb_Cd_Cl,ABX3,NaNbO3,Rb,Cd,Cl,2,2,6,2.90866,38.1,1.7548,RbCdCl3
ABX3_NaNbO3_Rb_Cd_Br,ABX3,NaNbO3,Rb,Cd,Br,2,2,6,2.54997,27.7,0.7742,RbCdBr3
ABX3_NaNbO3_Rb_Hg_F,ABX3,NaNbO3,Rb,Hg,F,2,2,6,3.31327,52.5,0.6291,RbHgF3
ABX3_NaNbO3_Rb_Hg_Cl,ABX3,NaNbO3,Rb,Hg,Cl,2,2,6,2.48285,25.2,1.7268,RbHgCl3
ABX3_NaNbO3_Rb_Hg_Br,ABX3,NaNbO3,Rb,Hg,Br,2,2,6,2.18784,22.9,1.1553,RbHgBr3
ABX3_NaNbO3_Cs_Be_F,ABX3,NaNbO3,Cs,Be,F,2,2,6,4.88984,54.1,6.272,CsBeF3
ABX3_NaNbO3_Cs_Be_Cl,ABX3,NaNbO3,Cs,Be,Cl,2,2,6,3.5334,29.25,4.3645,CsBeCl3
ABX3_NaNbO3_Cs_Be_Br,ABX3,NaNbO3,Cs,Be,Br,2,2,6,3.09715,31.85,3.3342,CsBeBr3
ABX3_NaNbO3_Cs_Mg_F,ABX3,NaNbO3,Cs,Mg,F,2,2,6,4.79625,61.1,6.7664,CsMgF3
ABX3_NaNbO3_Cs_Mg_Cl,ABX3,NaNbO3,Cs,Mg,Cl,2,2,6,3.5434,35.5,3.956,CsMgCl3
ABX3_NaNbO3_Cs_Mg_Br,ABX3,NaNbO3,Cs,Mg,Br,2,2,6,3.11398,33.7,2.551,CsMgBr3
ABX3_NaNbO3_Cs_Ca_F,ABX3,NaNbO3,Cs,Ca,F,2,2,6,5.16145,49.35,6.9823,CsCaF3
ABX3_NaNbO3_Cs_Ca_Cl,ABX3,NaNbO3,Cs,Ca,Cl,2,2,6,3.9814,17.2,5.3805,CsCaCl3
ABX3_NaNbO3_Cs_Ca_I,ABX3,NaNbO3,Cs,Ca,I,2,2,6,3.10675,10.7,3.7196,CsCaI3
ABX3_NaNbO3_Cs_Sr_F,ABX3,NaNbO3,Cs,Sr,F,2,2,6,5.05188,37.4,6.2531,CsSrF3
ABX3_NaNbO3_Cs_Sr_Cl,ABX3,NaNbO3,Cs,Sr,Cl,2,2,6,3.93224,24,5.0306,CsSrCl3
ABX3_NaNbO3_Cs_Ba_F,ABX3,NaNbO3,Cs,Ba,F,2,2,6,4.99444,33.35,5.268,CsBaF3
ABX3_NaNbO3_Cs_Zn_F,ABX3,NaNbO3,Cs,Zn,F,2,2,6,3.99582,65.2,3.8883,CsZnF3
ABX3_NaNbO3_Cs_Zn_Cl,ABX3,NaNbO3,Cs,Zn,Cl,2,2,6,2.96444,25.2,2.6774,CsZnCl3
ABX3_NaNbO3_Cs_Zn_Br,ABX3,NaNbO3,Cs,Zn,Br,2,2,6,2.60138,20.45,1.9067,CsZnBr3
ABX3_NaNbO3_Cs_Cd_F,ABX3,NaNbO3,Cs,Cd,F,2,2,6,3.90092,59.05,3.2881,CsCdF3
ABX3_NaNbO3_Cs_Cd_Cl,ABX3,NaNbO3,Cs,Cd,Cl,2,2,6,2.92829,31.8,1.7176,CsCdCl3
ABX3_NaNbO3_Cs_Cd_Br,ABX3,NaNbO3,Cs,Cd,Br,2,2,6,2.58005,19.5,0.6972,CsCdBr3
ABX3_NaNbO3_Cs_Hg_F,ABX3,NaNbO3,Cs,Hg,F,2,2,6,3.32393,49.9,0.782,CsHgF3
ABX3_NaNbO3_Cs_Hg_Cl,ABX3,NaNbO3,Cs,Hg,Cl,2,2,6,2.51626,31.45,1.9157,CsHgCl3
ABX3_NaNbO3_Cs_Hg_Br,ABX3,NaNbO3,Cs,Hg,Br,2,2,6,2.22529,22.75,1.3827,CsHgBr3
ABX3_NaNbO3_Cs_Hg_I,ABX3,NaNbO3,Cs,Hg,I,2,2,6,1.9205,19.05,1.0162,CsHgI3
BC2Y4_In2ZnS4_Be_Al_O,BC2Y4,In2ZnS4,Be,Al,O,1,2,4,7.31828,213,4.6066,BeAl2O4
BC2Y4_In2ZnS4_Be_Al_S,BC2Y4,In2ZnS4,Be,Al,S,1,2,4,4.9763,84.25,2.5006,BeAl2S4
BC2Y4_In2ZnS4_Be_Al_Se,BC2Y4,In2ZnS4,Be,Al,Se,1,2,4,4.39347,67.15,1.5714,BeAl2Se4
BC2Y4_In2ZnS4_Be_Al_Te,BC2Y4,In2ZnS4,Be,Al,Te,1,2,4,3.76316,62.1,1.2696,BeAl2Te4
BC2Y4_In2ZnS4_Be_Ga_O,BC2Y4,In2ZnS4,Be,Ga,O,1,2,4,6.21561,206.45,2.4334,BeGa2O4
BC2Y4_In2ZnS4_Be_Ga_S,BC2Y4,In2ZnS4,Be,Ga,S,1,2,4,4.41556,81,1.5481,BeGa2S4
BC2Y4_In2ZnS4_Be_Ga_Se,BC2Y4,In2ZnS4,Be,Ga,Se,1,2,4,3.93536,63.85,0.8682,BeGa2Se4
BC2Y4_In2ZnS4_Be_In_O,BC2Y4,In2ZnS4,Be,In,O,1,2,4,5.74662,161.2,0.751,BeIn2O4
BC2Y4_In2ZnS4_Be_In_S,BC2Y4,In2ZnS4,Be,In,S,1,2,4,4.20482,76.4,0.7753,BeIn2S4
BC2Y4_In2ZnS4_Be_In_Se,BC2Y4,In2ZnS4,Be,In,Se,1,2,4,3.79064,58.9,0.5976,BeIn2Se4
BC2Y4_In2ZnS4_Be_In_Te,BC2Y4,In2ZnS4,Be,In,Te,1,2,4,3.31453,46.65,0.555,BeIn2Te4
BC2Y4_In2ZnS4_Be_Sc_O,BC2Y4,In2ZnS4,Be,Sc,O,1,2,4,8.21613,176.6,4.1423,BeSc2O4
BC2Y4_In2ZnS4_Be_Sc_S,BC2Y4,In2ZnS4,Be,Sc,S,1,2,4,6.10998,78.9,1.8307,BeSc2S4
BC2Y4_In2ZnS4_Be_Sc_Se,BC2Y4,In2ZnS4,Be,Sc,Se,1,2,4,5.56539,63.6,1.5602,BeSc2Se4
BC2Y4_In2ZnS4_Be_Sc_Te,BC2Y4,In2ZnS4,Be,Sc,Te,1,2,4,4.91811,55.3,0.9697,BeSc2Te4
BC2Y4_In2ZnS4_Be_Y_O,BC2Y4,In2ZnS4,Be,Y,O,1,2,4,8.1364,146.5,2.1715,BeY2O4
BC2Y4_In2ZnS4_Be_Y_S,BC2Y4,In2ZnS4,Be,Y,S,1,2,4,6.19673,68.9,2.452,BeY2S4
BC2Y4_In2ZnS4_Be_Y_Se,BC2Y4,In2ZnS4,Be,Y,Se,1,2,4,5.67007,57.05,2.0341,BeY2Se4
BC2Y4_In2ZnS4_Be_Y_Te,BC2Y4,In2ZnS4,Be,Y,Te,1,2,4,5.0575,56.4,1.6979,BeY2Te4
BC2Y4_In2ZnS4_Be_La_O,BC2Y4,In2ZnS4,Be,La,O,1,2,4,7.66432,117.1,1.5752,BeLa2O4
BC2Y4_In2ZnS4_Be_La_S,BC2Y4,In2ZnS4,Be,La,S,1,2,4,5.79739,59.35,1.8987,BeLa2S4
BC2Y4_In2ZnS4_Be_La_Se,BC2Y4,In2ZnS4,Be,La,Se,1,2,4,5.24831,50.75,1.398,BeLa2Se4
BC2Y4_In2ZnS4_Be_La_Te,BC2Y4,In2ZnS4,Be,La,Te,1,2,4,3.53164,-1195.95,,BeLa2Te4
BC2Y4_In2ZnS4_Mg_Al_O,BC2Y4,In2ZnS4,Mg,Al,O,1,2,4,7.0121,182.35,3.6683,MgAl2O4
BC2Y4_In2ZnS4_Mg_Al_S,BC2Y4,In2ZnS4,Mg,Al,S,1,2,4,4.71451,73.9,0.8799,MgAl2S4
BC2Y4_In2ZnS4_Mg_Al_Se,BC2Y4,In2ZnS4,Mg,Al,Se,1,2,4,4.16891,55.7,0.1126,MgAl2Se4
BC2Y4_In2ZnS4_Mg_Al_Te,BC2Y4,In2ZnS4,Mg,Al,Te,1,2,4,3.56653,68.55,0.1081,MgAl2Te4
BC2Y4_In2ZnS4_Mg_Ga_O,BC2Y4,In2ZnS4,Mg,Ga,O,1,2,4,6.00225,173.95,1.9006,MgGa2O4
BC2Y4_In2ZnS4_Mg_Ga_S,BC2Y4,In2ZnS4,Mg,Ga,S,1,2,4,4.17096,68.15,0,MgGa2S4
BC2Y4_In2ZnS4_Mg_Ga_Se,BC2Y4,In2ZnS4,Mg,Ga,Se,1,2,4,3.72412,52.75,0,MgGa2Se4
BC2Y4_In2ZnS4_Mg_Ga_Te,BC2Y4,In2ZnS4,Mg,Ga,Te,1,2,4,3.22105,46.1,0,MgGa2Te4
BC2Y4_In2ZnS4_Mg_In_O,BC2Y4,In2ZnS4,Mg,In,O,1,2,4,5.66561,149.1,1.1512,MgIn2O4
BC2Y4_In2ZnS4_Mg_In_S,BC2Y4,In2ZnS4,Mg,In,S,1,2,4,4.07327,61.6,0.5063,MgIn2S4
BC2Y4_In2ZnS4_Mg_In_Se,BC2Y4,In2ZnS4,Mg,In,Se,1,2,4,3.66294,52.1,0.1309,MgIn2Se4
BC2Y4_In2ZnS4_Mg_In_Te,BC2Y4,In2ZnS4,Mg,In,Te,1,2,4,3.18176,44.15,0.0499,MgIn2Te4
BC2Y4_In2ZnS4_Mg_Sc_O,BC2Y4,In2ZnS4,Mg,Sc,O,1,2,4,8.08985,164.15,3.8967,MgSc2O4
BC2Y4_In2ZnS4_Mg_Sc_S,BC2Y4,In2ZnS4,Mg,Sc,S,1,2,4,6.00525,72.55,1.7723,MgSc2S4
BC2Y4_In2ZnS4_Mg_Sc_Se,BC2Y4,In2ZnS4,Mg,Sc,Se,1,2,4,5.44749,59.65,1.3549,MgSc2Se4
BC2Y4_In2ZnS4_Mg_Y_O,BC2Y4,In2ZnS4,Mg,Y,O,1,2,4,8.08038,129.75,2.8348,MgY2O4
BC2Y4_In2ZnS4_Mg_Y_S,BC2Y4,In2ZnS4,Mg,Y,S,1,2,4,6.19427,63.25,2.7852,MgY2S4
BC2Y4_In2ZnS4_Mg_Y_Se,BC2Y4,In2ZnS4,Mg,Y,Se,1,2,4,5.64371,52.45,2.1995,MgY2Se4
BC2Y4_In2ZnS4_Mg_Y_Te,BC2Y4,In2ZnS4,Mg,Y,Te,1,2,4,4.9757,47.65,1.6716,MgY2Te4
BC2Y4_In2ZnS4_Mg_La_O,BC2Y4,In2ZnS4,Mg,La,O,1,2,4,7.54599,108.9,2.1796,MgLa2O4
BC2Y4_In2ZnS4_Mg_La_S,BC2Y4,In2ZnS4,Mg,La,S,1,2,4,5.80197,55.75,2.1601,MgLa2S4
BC2Y4_In2ZnS4_Mg_La_Se,BC2Y4,In2ZnS4,Mg,La,Se,1,2,4,3.00403,-15389.85,,MgLa2Se4
BC2Y4_In2ZnS4_Ca_Al_O,BC2Y4,In2ZnS4,Ca,Al,O,1,2,4,6.95659,162.55,3.0471,CaAl2O4
BC2Y4_In2ZnS4_Ca_Al_S,BC2Y4,In2ZnS4,Ca,Al,S,1,2,4,4.8318,70.45,1.5637,CaAl2S4
BC2Y4_In2ZnS4_Ca_Al_Se,BC2Y4,In2ZnS4,Ca,Al,Se,1,2,4,4.29127,52.1,0.0699,CaAl2Se4
BC2Y4_In2ZnS4_Ca_Al_Te,BC2Y4,In2ZnS4,Ca,Al,Te,1,2,4,3.71525,53.4,0.1692,CaAl2Te4
BC2Y4_In2ZnS4_Ca_Ga_O,BC2Y4,In2ZnS4,Ca,Ga,O,1,2,4,5.99851,153.95,1.7337,CaGa2O4
BC2Y4_In2ZnS4_Ca_Ga_S,BC2Y4,In2ZnS4,Ca,Ga,S,1,2,4,4.26741,62.05,0,CaGa2S4
BC2Y4_In2ZnS4_Ca_Ga_Se,BC2Y4,In2ZnS4,Ca,Ga,Se,1,2,4,3.85041,47,0,CaGa2Se4
BC2Y4_In2ZnS4_Ca_Ga_Te,BC2Y4,In2ZnS4,Ca,Ga,Te,1,2,4,3.37532,42,0,CaGa2Te4
BC2Y4_In2ZnS4_Ca_In_O,BC2Y4,In2ZnS4,Ca,In,O,1,2,4,5.77378,127.75,1.2253,CaIn2O4
BC2Y4_In2ZnS4_Ca_In_S,BC2Y4,In2ZnS4,Ca,In,S,1,2,4,4.2378,56.7,0.7545,CaIn2S4
BC2Y4_In2ZnS4_Ca_In_Se,BC2Y4,In2ZnS4,Ca,In,Se,1,2,4,3.82236,45.85,0.2568,CaIn2Se4
BC2Y4_In2ZnS4_Ca_In_Te,BC2Y4,In2ZnS4,Ca,In,Te,1,2,4,3.34858,38.7,0,CaIn2Te4
BC2Y4_In2ZnS4_Ca_Sc_O,BC2Y4,In2ZnS4,Ca,Sc,O,1,2,4,8.15835,144.7,3.8651,CaSc2O4
BC2Y4_In2ZnS4_Ca_Sc_S,BC2Y4,In2ZnS4,Ca,Sc,S,1,2,4,6.17914,66.45,1.8189,CaSc2S4
BC2Y4_In2ZnS4_Ca_Sc_Se,BC2Y4,In2ZnS4,Ca,Sc,Se,1,2,4,5.63552,54.2,1.4359,CaSc2Se4
BC2Y4_In2ZnS4_Ca_Sc_Te,BC2Y4,In2ZnS4,Ca,Sc,Te,1,2,4,4.97425,44.15,0.8288,CaSc2Te4
BC2Y4_In2ZnS4_Ca_Y_O,BC2Y4,In2ZnS4,Ca,Y,O,1,2,4,8.24512,117.8,3.3528,CaY2O4
BC2Y4_In2ZnS4_Ca_Y_S,BC2Y4,In2ZnS4,Ca,Y,S,1,2,4,6.42341,58,2.8853,CaY2S4
BC2Y4_In2ZnS4_Ca_Y_Se,BC2Y4,In2ZnS4,Ca,Y,Se,1,2,4,5.88039,49.55,2.296,CaY2Se4
BC2Y4_In2ZnS4_Ca_Y_Te,BC2Y4,In2ZnS4,Ca,Y,Te,1,2,4,5.20921,46.45,1.734,CaY2Te4
BC2Y4_In2ZnS4_Ca_La_O,BC2Y4,In2ZnS4,Ca,La,O,1,2,4,7.76569,101.15,2.8548,CaLa2O4
BC2Y4_In2ZnS4_Ca_La_S,BC2Y4,In2ZnS4,Ca,La,S,1,2,4,6.0773,52.25,2.5182,CaLa2S4
BC2Y4_In2ZnS4_Ca_La_Se,BC2Y4,In2ZnS4,Ca,La,Se,1,2,4,5.56161,43.1,2.1151,CaLa2Se4
BC2Y4_In2ZnS4_Sr_Al_O,BC2Y4,In2ZnS4,Sr,Al,O,1,2,4,6.74274,153.65,2.5212,SrAl2O4
BC2Y4_In2ZnS4_Sr_Al_S,BC2Y4,In2ZnS4,Sr,Al,S,1,2,4,4.72763,67.3,1.3293,SrAl2S4
BC2Y4_In2ZnS4_Sr_Al_Se,BC2Y4,In2ZnS4,Sr,Al,Se,1,2,4,4.19735,49.15,0,SrAl2Se4
BC2Y4_In2ZnS4_Sr_Al_Te,BC2Y4,In2ZnS4,Sr,Al,Te,1,2,4,3.64759,46.3,0.0241,SrAl2Te4
BC2Y4_In2ZnS4_Sr_Ga_O,BC2Y4,In2ZnS4,Sr,Ga,O,1,2,4,5.80676,140.75,1.5121,SrGa2O4
BC2Y4_In2ZnS4_Sr_Ga_S,BC2Y4,In2ZnS4,Sr,Ga,S,1,2,4,4.15827,58.75,0,SrGa2S4
BC2Y4_In2ZnS4_Sr_Ga_Se,BC2Y4,In2ZnS4,Sr,Ga,Se,1,2,4,3.76074,45.7,0,SrGa2Se4
BC2Y4_In2ZnS4_Sr_Ga_Te,BC2Y4,In2ZnS4,Sr,Ga,Te,1,2,4,3.31231,37.05,0,SrGa2Te4
BC2Y4_In2ZnS4_Sr_In_O,BC2Y4,In2ZnS4,Sr,In,O,1,2,4,5.62617,121.7,1.1219,SrIn2O4
BC2Y4_In2ZnS4_Sr_In_S,BC2Y4,In2ZnS4,Sr,In,S,1,2,4,4.15602,56.25,0.6816,SrIn2S4
BC2Y4_In2ZnS4_Sr_In_Se,BC2Y4,In2ZnS4,Sr,In,Se,1,2,4,3.75288,42.3,0.3803,SrIn2Se4
BC2Y4_In2ZnS4_Sr_In_Te,BC2Y4,In2ZnS4,Sr,In,Te,1,2,4,3.29391,27.55,0,SrIn2Te4
BC2Y4_In2ZnS4_Sr_Sc_O,BC2Y4,In2ZnS4,Sr,Sc,O,1,2,4,7.98953,134.95,3.3627,SrSc2O4
BC2Y4_In2ZnS4_Sr_Sc_S,BC2Y4,In2ZnS4,Sr,Sc,S,1,2,4,6.09527,61.25,1.8143,SrSc2S4
BC2Y4_In2ZnS4_Sr_Sc_Se,BC2Y4,In2ZnS4,Sr,Sc,Se,1,2,4,5.56843,50.4,1.4446,SrSc2Se4