formula,Z,Period,Group,m,kai,EA,IE1,IE2,Rvdw,Rcov,MP,BP,Cp_g,Cp_mol,rho,E-fusion,E-vapor,ThermalConductivity
KCaN,15.3333333333,3.33333333333,6.0,31.0633333333,1.62,0.143823333333,8.32930776667,24.3676733333,2.20333333333,1.48333333333,504.983333333,955.551666667,0.814666666667,28.2176666667,1.219,3.74333333333,78.1209333333,1.01141993333
KCaP,18.0,3.66666666667,6.0,36.7166666667,1.33666666667,0.41599,6.9801711,21.0904066667,2.28666666667,1.61,589.7,1114.31666667,0.724333333333,26.451,1.40966666667,3.83666666667,81.3233333333,1.01211666667
KCaSb,30.0,4.33333333333,6.0,66.9933333333,1.29,0.523823333333,6.3540711,20.0439066667,2.37333333333,1.71333333333,785.192666667,1549.81666667,0.537,26.9196666667,3.03433333333,10.19,99.8466666667,1.09233333333
KCdAs,33.3333333333,4.33333333333,9.33333333333,75.4733333333,1.56333333333,0.437156666667,7.70769443333,22.3758366667,2.26,1.53333333333,673.673,987.15,0.439,26.7533333333,5.07766666667,12.11,69.7233333333,0.831333333333
KCdBr3,34.4,4.2,12.8,78.24,2.278,2.119294,9.75517666,22.662262,2.096,1.382,345.7438,613.63,0.482,56.538,3.7732,5.206,44.189,0.399132
KCdCl3,23.6,3.6,12.8,51.57,2.398,2.270494,10.44747466,23.995822,2.036,1.28,289.1638,557.926,0.485,31.4934,3.8296,3.646,41.474,0.3984534
KCdF3,18.8,3.0,12.8,41.7,2.89,2.139694,13.12057666,30.690142,1.868,1.04,218.2618,465.484,0.692,29.9064,2.9188,1.882,37.31588,0.3985674
KCdI3,45.2,4.8,12.8,106.44,2.098,1.935754,8.93765266,21.186442,2.174,1.496,418.2838,688.99,0.326,43.782,4.8652,6.382,47.894,0.401094
KCdN,24.6666666667,3.66666666667,9.33333333333,55.17,1.85,0.143823333333,9.28952776667,26.0465366667,2.16,1.37,331.339666667,716.551666667,0.676,28.248,3.58566666667,2.99666666667,59.8542666667,0.6640866
KCdP,27.3333333333,4.0,9.33333333333,60.8233333333,1.56666666667,0.41599,7.9403911,22.76927,2.24333333333,1.49666666667,416.056333333,875.316666667,0.585666666667,26.4813333333,3.77633333333,3.09,63.0566666667,0.664783333333
KCdSb,39.3333333333,4.66666666667,9.33333333333,91.1,1.52,0.523823333333,7.3142911,21.72277,2.33,1.6,611.549,1310.81666667,0.398333333333,26.95,5.401,9.44333333333,81.58,0.745
KCl,18.0,3.5,9.0,37.275,1.99,2.059235,8.65414665,27.7218,2.25,1.5,254.15,635.63,0.618,31.7745,2.035,2.765,43.55,0.5120445
KF,14.0,3.0,9.0,29.05,2.4,1.950235,10.88173165,33.3004,2.11,1.3,195.065,558.595,0.7905,30.452,1.276,1.295,40.0849,0.5121395
KHgAs,44.0,4.66666666667,9.33333333333,104.873333333,1.63333333333,0.437156666667,8.1889211,22.992,2.27666666667,1.50666666667,553.707,850.356333333,0.408666666667,27.4076666667,6.70566666667,10.7733333333,56.2,0.536466666667
KHgBr3,40.8,4.4,12.8,95.88,2.32,2.119294,10.04391266,23.03196,2.106,1.366,273.7642,531.5538,0.4638,56.9306,4.75,4.404,36.075,0.222212
KHgCl3,30.0,3.8,12.8,69.21,2.44,2.270494,10.73621066,24.36552,2.046,1.264,217.1842,475.8498,0.4668,31.886,4.8064,2.844,33.36,0.2215334
KHgF3,25.2,3.2,12.8,59.34,2.932,2.139694,13.40931266,31.05984,1.878,1.024,146.2822,383.4078,0.6738,30.299,3.8956,1.08,29.20188,0.2216474
KHgI3,51.6,5.0,12.8,124.08,2.14,1.935754,9.22638866,21.55614,2.184,1.48,346.3042,606.9138,0.3078,44.1746,5.842,5.58,39.78,0.224174
KHgN,35.3333333333,4.0,9.33333333333,84.57,1.92,0.143823333333,9.77075443333,26.6627,2.17666666667,1.34333333333,211.373666667,579.758,0.645666666667,28.9023333333,5.21366666667,1.66,46.3309333333,0.369219933333
KHgP,38.0,4.33333333333,9.33333333333,90.2233333333,1.63666666667,0.41599,8.42161776667,23.3854333333,2.26,1.47,296.090333333,738.523,0.555333333333,27.1356666667,5.40433333333,1.75333333333,49.5333333333,0.369916666667
KHgSb,50.0,5.0,9.33333333333,120.5,1.59,0.523823333333,7.79551776667,22.3389333333,2.34666666667,1.57333333333,491.583,1174.023,0.368,27.6043333333,7.029,8.10666666667,68.0566666667,0.450133333333
KI,36.0,4.5,9.0,83.0,1.74,1.780285,7.39596165,25.38065,2.365,1.68,361.75,744.85,0.4855,42.015,2.898,5.045,48.9,0.514245
KMgAs,21.3333333333,3.66666666667,6.0,46.11,1.43666666667,0.437156666667,7.25849943333,21.75149,2.11,1.53333333333,783.316666667,1094.81666667,0.703,26.3696666667,2.77366666667,12.91,78.9666666667,1.02866666667
KMgBr3,27.2,3.8,10.8,60.622,2.202,2.119294,9.48565966,22.287654,2.006,1.382,411.53,678.23,0.6404,56.3078,2.3908,5.686,49.735,0.517532
KMgCl3,16.4,3.2,10.8,33.952,2.322,2.270494,10.17795766,23.621214,1.946,1.28,354.95,622.526,0.6434,31.2632,2.4472,4.126,47.02,0.5168534
KMgF3,11.6,2.6,10.8,24.082,2.814,2.139694,12.85105966,30.315534,1.778,1.04,284.048,530.084,0.8504,29.6762,1.5364,2.362,42.86188,0.5169674
KMgI3,38.0,4.4,10.8,88.822,2.022,1.935754,8.66813566,20.811834,2.084,1.496,484.07,753.59,0.4844,43.5518,3.4828,6.862,53.44,0.519494
KMgN,12.6666666667,3.0,6.0,25.8066666667,1.72333333333,0.143823333333,8.84033276667,25.42219,2.01,1.37,440.983333333,824.218333333,0.94,27.8643333333,1.28166666667,3.79666666667,69.0976,0.861419933333
KMgP,15.3333333333,3.33333333333,6.0,31.46,1.44,0.41599,7.4911961,22.1449233333,2.09333333333,1.49666666667,525.7,982.983333333,0.849666666667,26.0976666667,1.47233333333,3.89,72.3,0.862116666667
KMgSb,27.3333333333,4.0,6.0,61.7366666667,1.39333333333,0.523823333333,6.8650961,21.0984233333,2.18,1.6,721.192666667,1418.48333333,0.662333333333,26.5663333333,3.097,10.2433333333,90.8233333333,0.942333333333
KSrAs,30.0,4.33333333333,6.0,67.2133333333,1.31666666667,0.437156666667,6.60803776667,20.4164333333,2.36333333333,1.7,825.65,1190.48333333,0.464,27.01,3.071,12.6766666667,82.0666666667,0.626333333333
KSrBr3,32.4,4.2,10.8,73.284,2.13,2.119294,9.09538266,21.48662,2.158,1.482,436.93,735.63,0.497,56.692,2.5692,5.546,51.595,0.276132
KSrCl3,21.6,3.6,10.8,46.614,2.25,2.270494,9.78768066,22.82018,2.098,1.38,380.35,679.926,0.5,31.6474,2.6256,3.986,48.88,0.2754534
KSrF3,16.8,3.0,10.8,36.744,2.742,2.139694,12.46078266,29.5145,1.93,1.14,309.448,587.484,0.707,30.0604,1.7148,2.222,44.72188,0.2755674
KSrI3,43.2,4.8,10.8,101.484,1.95,1.935754,8.27785866,20.0108,2.236,1.596,509.47,810.99,0.341,43.936,3.6612,6.722,55.3,0.278094
KSrN,21.3333333333,3.66666666667,6.0,46.91,1.60333333333,0.143823333333,8.1898711,24.0871333333,2.26333333333,1.53666666667,483.316666667,919.885,0.701,28.5046666667,1.579,3.56333333333,72.1976,0.4590866
KSrP,24.0,4.0,6.0,52.5633333333,1.32,0.41599,6.84073443333,20.8098666667,2.34666666667,1.66333333333,568.033333333,1078.65,0.610666666667,26.738,1.76966666667,3.65666666667,75.4,0.459783333333
KSrSb,36.0,4.66666666667,6.0,82.84,1.27333333333,0.523823333333,6.21463443333,19.7633666667,2.43333333333,1.76666666667,763.526,1514.15,0.423333333333,27.2066666667,3.39433333333,10.01,93.9233333333,0.54
KZnAs,27.3333333333,4.0,9.33333333333,59.8033333333,1.55,0.437156666667,7.8411541,22.7278633333,2.20333333333,1.46666666667,706.492333333,1033.81666667,0.491333333333,26.5433333333,4.57433333333,12.46,74.8666666667,0.895333333333
KZnBr3,30.8,4.0,12.8,68.838,2.27,2.119294,9.83525246,22.873478,2.062,1.342,365.4354,641.63,0.5134,56.412,3.4712,5.416,47.275,0.437532
KZnCl3,20.0,3.4,12.8,42.168,2.39,2.270494,10.52755046,24.207038,2.002,1.24,308.8554,585.926,0.5164,31.3674,3.5276,3.856,44.56,0.4368534
KZnF3,15.2,2.8,12.8,32.298,2.882,2.139694,13.20065246,30.901358,1.834,1.0,237.9534,493.484,0.7234,29.7804,2.6168,2.092,40.40188,0.4369674
KZnI3,41.6,4.6,12.8,97.038,2.09,1.935754,9.01772846,21.397658,2.14,1.456,437.9754,716.99,0.3574,43.656,4.5632,6.592,50.98,0.439494
KZnN,18.6666666667,3.33333333333,9.33333333333,39.5,1.83666666667,0.143823333333,9.42298743333,26.3985633333,2.10333333333,1.30333333333,364.159,763.218333333,0.728333333333,28.038,3.08233333333,3.34666666667,64.9976,0.7280866
KZnP,21.3333333333,3.66666666667,9.33333333333,45.1533333333,1.55333333333,0.41599,8.07385076667,23.1212966667,2.18666666667,1.43,448.875666667,921.983333333,0.638,26.2713333333,3.273,3.44,68.2,0.728783333333
KZnSb,33.3333333333,4.33333333333,9.33333333333,75.43,1.50666666667,0.523823333333,7.44775076667,22.0747966667,2.27333333333,1.53333333333,644.368333333,1357.48333333,0.450666666667,26.74,4.89766666667,9.79333333333,86.7233333333,0.809
La2O3,27.6,3.6,10.8,65.16,2.504,1.0766729,10.40159,25.49626,1.884,1.16,509.876,1548.9728,0.6288,28.4708,3.3158,2.6132,161.87454,0.05416044
La2S3,32.4,4.2,10.8,74.802,1.988,1.446272,8.446766,18.426328,2.052,1.4,710.276,1925.516,0.5028,24.464,3.6344,3.518,165.828,0.055614
La2Se3,43.2,4.8,10.8,102.936,1.97,1.412,8.082194,17.1376,2.112,1.484,773.63,2069.75,0.2706,26.0618,5.3498,5.72,175.62,0.06624
La2Te3,54.0,5.4,10.8,132.12,1.7,1.38248,7.63652,15.5836,2.208,1.598,910.856,2251.55,0.1992,26.282,6.2024,12.98,190.206,0.0681
LaAs,45.0,5.0,9.0,106.91,1.64,0.655,7.68275,14.8241,2.14,1.57,1141.65,2313.15,0.262,25.875,5.9365,16.95,215.985,0.3185
LaBr3,40.5,4.5,13.5,94.65,2.495,2.64875,10.254575,18.958,1.995,1.3625,497.75,1183.25,0.40425,63.545,3.8765,5.9,110.93625,0.034665
LaCl3,27.0,3.75,13.5,61.3125,2.645,2.83775,11.1199475,20.62495,1.92,1.235,427.025,1113.62,0.408,32.23925,3.947,3.95,107.5425,0.03381675
LaF3,21.0,3.0,13.5,48.975,3.26,2.67425,14.461325,28.99285,1.71,0.935,338.3975,998.0675,0.66675,30.2555,2.8085,1.745,102.34485,0.03395925
LaI3,54.0,5.25,13.5,129.9,2.27,2.419325,9.23267,17.113225,2.0925,1.505,588.425,1277.45,0.20925,47.6,5.2415,7.37,115.5675,0.0371175
LaN,32.0,4.0,9.0,76.455,2.07,0.215,10.0555,20.33015,1.99,1.325,628.15,1907.2525,0.6175,28.117,3.6985,3.28,201.1814,0.0676299
LaP,36.0,4.5,9.0,84.935,1.645,0.62325,8.031795,15.41425,2.115,1.515,755.225,2145.4,0.482,25.467,3.9845,3.42,205.985,0.068675
LaSb,54.0,5.5,9.0,130.35,1.575,0.785,7.092645,13.8445,2.245,1.67,1048.464,2798.65,0.201,26.17,6.4215,12.95,233.77,0.189
Li3As,10.5,2.5,4.5,23.93575,1.28,0.666,6.49093925,61.3773,1.8275,1.275,612.775,1433.65,2.76875,24.805,1.833,9.175,118.425,0.76075
Li3N,4.0,2.0,4.5,8.70825,1.495,0.446,7.67731425,64.130325,1.7525,1.1525,356.025,1230.70125,2.9465,25.926,0.714,2.34,111.0232,0.63531495
Li3P,6.0,2.25,4.5,12.94825,1.2825,0.650125,6.66546175,61.672375,1.815,1.2475,419.5625,1349.775,2.87875,24.601,0.857,2.41,113.425,0.6358375
Li3Sb,15.0,2.75,4.5,35.65575,1.2475,0.731,6.19588675,60.8875,1.88,1.325,566.182,1676.4,2.73825,24.9525,2.0755,7.175,127.3175,0.696
LiBaAs,30.6666666667,4.0,6.0,73.0536666667,1.35,0.476,6.79732766667,34.7443433333,2.11666666667,1.52,847.983333333,1540.81666667,1.37166666667,25.8566666667,3.25733333333,12.9,106.566666667,0.511
LiBaBr3,32.8,4.0,10.8,76.7882,2.15,2.1426,9.2089566,30.083366,2.01,1.374,450.33,945.83,1.0416,56.0,2.681,5.68,66.295,0.206932
LiBaCl3,22.0,3.4,10.8,50.1182,2.27,2.2938,9.9012546,31.416926,1.95,1.272,393.75,890.126,1.0446,30.9554,2.7374,4.12,63.58,0.2062534
LiBaF3,17.2,2.8,10.8,40.2482,2.762,2.163,12.5743566,38.111246,1.782,1.032,322.848,797.684,1.2516,29.3684,1.8266,2.356,59.42188,0.2063674
LiBaI3,43.6,4.6,10.8,104.9882,1.97,1.95906,8.3914326,28.607546,2.088,1.488,522.87,1021.19,0.8856,43.244,3.773,6.856,70.0,0.208894
LiBaN,22.0,3.33333333333,6.0,52.7503333333,1.63666666667,0.182666666667,8.379161,38.4150433333,2.01666666667,1.35666666667,505.65,1270.21833333,1.60866666667,27.3513333333,1.76533333333,3.78666666667,96.6976,0.343753266667
LiBaP,24.6666666667,3.66666666667,6.0,58.4036666667,1.35333333333,0.454833333333,7.03002433333,35.1377766667,2.1,1.48333333333,590.366666667,1428.98333333,1.51833333333,25.5846666667,1.956,3.88,99.9,0.34445
LiBaSb,36.6666666667,4.33333333333,6.0,88.6803333333,1.30666666667,0.562666666667,6.40392433333,34.0912766667,2.18666666667,1.58666666667,785.859333333,1864.48333333,1.331,26.0533333333,3.58066666667,10.2333333333,118.423333333,0.424666666667
LiBeAs,13.3333333333,2.66666666667,6.0,30.291,1.57666666667,0.476,8.167673,37.4801133333,1.73333333333,1.16333333333,1034.65,1748.48333333,1.912,21.981,2.70333333333,12.8833333333,158.833333333,1.11966666667
LiBeBr3,22.4,3.2,10.8,51.1306,2.286,2.1426,10.0311638,31.724828,1.78,1.16,562.33,1070.43,1.3658,53.6746,2.3486,5.67,97.655,0.572132
LiBeCl3,11.6,2.6,10.8,24.4606,2.406,2.2938,10.7234618,33.058388,1.72,1.058,505.75,1014.726,1.3688,28.63,2.405,4.11,94.94,0.5714534
LiBeF3,6.8,2.0,10.8,14.5906,2.898,2.163,13.3965638,39.752708,1.552,0.818,434.848,922.284,1.5758,27.043,1.4942,2.346,90.78188,0.5715674
LiBeI3,33.2,3.8,10.8,79.3306,2.106,1.95906,9.2136398,30.249008,1.858,1.274,634.87,1145.79,1.2098,40.9186,3.4406,6.846,101.36,0.574094
LiBeN,4.66666666667,2.0,6.0,9.98766666667,1.86333333333,0.182666666667,9.74950633333,41.1508133333,1.63333333333,1.0,692.316666667,1477.885,2.149,23.4756666667,1.21133333333,3.77,148.964266667,0.952419933333
LiBeP,7.33333333333,2.33333333333,6.0,15.641,1.58,0.454833333333,8.40036966667,37.8735466667,1.71666666667,1.12666666667,777.033333333,1636.65,2.05866666667,21.709,1.402,3.86333333333,152.166666667,0.953116666667
LiBeSb,19.3333333333,3.0,6.0,45.9176666667,1.53333333333,0.562666666667,7.77426966667,36.8270466667,1.80333333333,1.23,972.526,2072.15,1.87133333333,22.1776666667,3.02666666667,10.2166666667,170.69,1.03333333333
LiBr,19.0,3.0,9.0,43.4205,1.97,1.9915,8.6027595,48.6155,1.835,1.235,359.8,973.55,2.028,50.275,1.8275,4.4,80.9125,0.42411
LiCaAs,18.6666666667,3.33333333333,6.0,40.647,1.38666666667,0.476,7.09782633333,35.3669733333,1.99333333333,1.41333333333,886.316666667,1420.48333333,1.51933333333,25.143,2.604,13.08,111.39,1.11966666667
LiCaBr3,25.6,3.6,10.8,57.3442,2.172,2.1426,9.3892558,30.456944,1.936,1.31,473.33,873.63,1.1302,55.5718,2.289,5.788,69.189,0.572132
LiCaCl3,14.8,3.0,10.8,30.6742,2.292,2.2938,10.0815538,31.790504,1.876,1.208,416.75,817.926,1.1332,30.5272,2.3454,4.228,66.474,0.5714534
LiCaF3,10.0,2.4,10.8,20.8042,2.784,2.163,12.7546558,38.484824,1.708,0.968,345.848,725.484,1.3402,28.9402,1.4346,2.464,62.31588,0.5715674
LiCaI3,36.4,4.2,10.8,85.5442,1.992,1.95906,8.5717318,28.981124,2.014,1.424,545.87,948.99,0.9742,42.8158,3.381,6.964,72.894,0.574094
LiCaN,10.0,2.66666666667,6.0,20.3436666667,1.67333333333,0.182666666667,8.67965966667,39.0376733333,1.89333333333,1.25,543.983333333,1149.885,1.75633333333,26.6376666667,1.112,3.96666666667,101.520933333,0.952419933333
LiCaP,12.6666666667,3.0,6.0,25.997,1.39,0.454833333333,7.330523,35.7604066667,1.97666666667,1.37666666667,628.7,1308.65,1.666,24.871,1.30266666667,4.06,104.723333333,0.953116666667
LiCaSb,24.6666666667,3.66666666667,6.0,56.2736666667,1.34333333333,0.562666666667,6.704423,34.7139066667,2.06333333333,1.48,824.192666667,1744.15,1.47866666667,25.3396666667,2.92733333333,10.4133333333,123.246666667,1.03333333333
LiCdAs,28.0,3.66666666667,9.33333333333,64.7536666667,1.61666666667,0.476,8.05804633333,37.0458366667,1.95,1.3,712.673,1181.48333333,1.38066666667,25.1733333333,4.97066666667,12.3333333333,93.1233333333,0.772333333333
LiCdBr3,31.2,3.8,12.8,71.8082,2.31,2.1426,9.9653878,31.464262,1.91,1.242,369.1438,730.23,1.047,55.59,3.709,5.34,58.229,0.363732
LiCdCl3,20.4,3.2,12.8,45.1382,2.43,2.2938,10.6576858,32.797822,1.85,1.14,312.5638,674.526,1.05,30.5454,3.7654,3.78,55.514,0.3630534
LiCdF3,15.6,2.6,12.8,35.2682,2.922,2.163,13.3307878,39.492142,1.682,0.9,241.6618,582.084,1.257,28.9584,2.8546,2.016,51.35588,0.3631674
LiCdI3,42.0,4.4,12.8,100.0082,2.13,1.95906,9.1478638,29.988442,1.988,1.356,441.6838,805.59,0.891,42.834,4.801,6.516,61.934,0.365694
LiCdN,19.3333333333,3.0,9.33333333333,44.4503333333,1.90333333333,0.182666666667,9.63987966667,40.7165366667,1.85,1.13666666667,370.339666667,910.885,1.61766666667,26.668,3.47866666667,3.22,83.2542666667,0.6050866
LiCdP,22.0,3.33333333333,9.33333333333,50.1036666667,1.62,0.454833333333,8.290743,37.43927,1.93333333333,1.26333333333,455.056333333,1069.65,1.52733333333,24.9013333333,3.66933333333,3.31333333333,86.4566666667,0.605783333333
LiCdSb,34.0,4.0,9.33333333333,80.3803333333,1.57333333333,0.562666666667,7.664643,36.39277,2.02,1.36666666667,650.549,1505.15,1.34,25.37,5.294,9.66666666667,104.98,0.686
LiCl,10.0,2.5,9.0,21.1955,2.07,2.1175,9.1796745,49.7268,1.785,1.15,312.65,927.13,2.0305,29.4045,1.8745,3.1,78.65,0.4235445
LiF,6.0,2.0,9.0,12.9705,2.48,2.0085,11.4072595,55.3054,1.645,0.95,253.565,850.095,2.203,28.082,1.1155,1.63,75.1849,0.4236395
LiHgAs,38.6666666667,4.0,9.33333333333,94.1536666667,1.68666666667,0.476,8.539273,37.662,1.96666666667,1.27333333333,592.707,1044.68966667,1.35033333333,25.8276666667,6.59866666667,10.9966666667,79.6,0.477466666667
LiHgBr3,37.6,4.0,12.8,89.4482,2.352,2.1426,10.2541238,31.83396,1.92,1.226,297.1642,648.1538,1.0288,55.9826,4.6858,4.538,50.115,0.186812
LiHgCl3,26.8,3.4,12.8,62.7782,2.472,2.2938,10.9464218,33.16752,1.86,1.124,240.5842,592.4498,1.0318,30.938,4.7422,2.978,47.4,0.1861334
LiHgF3,22.0,2.8,12.8,52.9082,2.964,2.163,13.6195238,39.86184,1.692,0.884,169.6822,500.0078,1.2388,29.351,3.8314,1.214,43.24188,0.1862474
LiHgI3,48.4,4.6,12.8,117.6482,2.172,1.95906,9.4365998,30.35814,1.998,1.34,369.7042,723.5138,0.8728,43.2266,5.7778,5.714,53.82,0.188774
LiHgN,30.0,3.33333333333,9.33333333333,73.8503333333,1.97333333333,0.182666666667,10.1211063333,41.3327,1.86666666667,1.11,250.373666667,774.091333333,1.58733333333,27.3223333333,5.10666666667,1.88333333333,69.7309333333,0.310219933333
LiHgP,32.6666666667,3.66666666667,9.33333333333,79.5036666667,1.69,0.454833333333,8.77196966667,38.0554333333,1.95,1.23666666667,335.090333333,932.856333333,1.497,25.5556666667,5.29733333333,1.97666666667,72.9333333333,0.310916666667
LiHgSb,44.6666666667,4.33333333333,9.33333333333,109.780333333,1.64333333333,0.562666666667,8.14586966667,37.0089333333,2.03666666667,1.34,530.583,1368.35633333,1.30966666667,26.0243333333,6.922,8.33,91.4566666667,0.391133333333
LiI,28.0,3.5,9.0,66.9205,1.82,1.83855,7.9214895,47.38565,1.9,1.33,420.25,1036.35,1.898,39.645,2.7375,5.38,84.0,0.425745
LiMgAs,16.0,3.0,6.0,35.3903333333,1.49,0.476,7.60885133333,36.42149,1.8,1.3,822.316666667,1289.15,1.64466666667,24.7896666667,2.66666666667,13.1333333333,102.366666667,0.969666666667
LiMgBr3,24.0,3.4,10.8,54.1902,2.234,2.1426,9.6958708,31.089654,1.82,1.242,434.93,794.83,1.2054,55.3598,2.3266,5.82,63.775,0.482132
LiMgCl3,13.2,2.8,10.8,27.5202,2.354,2.2938,10.3881688,32.423214,1.76,1.14,378.35,739.126,1.2084,30.3152,2.383,4.26,61.06,0.4814534
LiMgF3,8.4,2.2,10.8,17.6502,2.846,2.163,13.0612708,39.117534,1.592,0.9,307.448,646.684,1.4154,28.7282,1.4722,2.496,56.90188,0.4815674
LiMgI3,34.8,4.0,10.8,82.3902,2.054,1.95906,8.8783468,29.613834,1.898,1.356,507.47,870.19,1.0494,42.6038,3.4186,6.996,67.48,0.484094
LiMgN,7.33333333333,2.33333333333,6.0,15.087,1.77666666667,0.182666666667,9.19068466667,40.09219,1.7,1.13666666667,479.983333333,1018.55166667,1.88166666667,26.2843333333,1.17466666667,4.02,92.4976,0.802419933333
LiMgP,10.0,2.66666666667,6.0,20.7403333333,1.49333333333,0.454833333333,7.841548,36.8149233333,1.78333333333,1.26333333333,564.7,1177.31666667,1.79133333333,24.5176666667,1.36533333333,4.11333333333,95.7,0.803116666667
LiMgSb,22.0,3.33333333333,6.0,51.017,1.44666666667,0.562666666667,7.215448,35.7684233333,1.87,1.36666666667,760.192666667,1612.81666667,1.604,24.9863333333,2.99,10.4666666667,114.223333333,0.883333333333
LiSrAs,24.6666666667,3.66666666667,6.0,56.4936666667,1.37,0.476,6.95838966667,35.0864333333,2.05333333333,1.46666666667,864.65,1384.81666667,1.40566666667,25.43,2.964,12.9,105.466666667,0.567333333333
LiSrBr3,29.2,3.8,10.8,66.8522,2.162,2.1426,9.3055938,30.28862,1.972,1.342,460.33,852.23,1.062,55.744,2.505,5.68,65.635,0.240732
LiSrCl3,18.4,3.2,10.8,40.1822,2.282,2.2938,9.9978918,31.62218,1.912,1.24,403.75,796.526,1.065,30.6994,2.5614,4.12,62.92,0.2400534
LiSrF3,13.6,2.6,10.8,30.3122,2.774,2.163,12.6709938,38.3165,1.744,1.0,332.848,704.084,1.272,29.1124,1.6506,2.356,58.76188,0.2401674
LiSrI3,40.0,4.4,10.8,95.0522,1.982,1.95906,8.4880698,28.8128,2.05,1.456,532.87,927.59,0.906,42.988,3.597,6.856,69.34,0.242694
LiSrN,16.0,3.0,6.0,36.1903333333,1.65666666667,0.182666666667,8.540223,38.7571333333,1.95333333333,1.30333333333,522.316666667,1114.21833333,1.64266666667,26.9246666667,1.472,3.78666666667,95.5976,0.4000866