Compound,type,st,a1,a2,a3,n1,n2,n3,Ecoh,BM,bandgap,formula
ABZ_PbClF_Na_Hg_As,ABZ,PbClF,Na,Hg,As,2,2,2,2.2501,42.6,0.5936,NaHgAs
ABZ_PbClF_Na_Hg_Sb,ABZ,PbClF,Na,Hg,Sb,2,2,2,2.10178,38.8,0.2306,NaHgSb
ABZ_PbClF_K_Be_N,ABZ,PbClF,K,Be,N,2,2,2,4.8735,57.3,0,KBeN
ABZ_PbClF_K_Be_P,ABZ,PbClF,K,Be,P,2,2,2,3.80246,48.75,0.8242,KBeP
ABZ_PbClF_K_Be_As,ABZ,PbClF,K,Be,As,2,2,2,3.51917,45.2,0.889,KBeAs
ABZ_PbClF_K_Be_Sb,ABZ,PbClF,K,Be,Sb,2,2,2,3.15343,51.65,0.155,KBeSb
ABZ_PbClF_K_Mg_N,ABZ,PbClF,K,Mg,N,2,2,2,3.90661,58.85,1.2352,KMgN
ABZ_PbClF_K_Mg_P,ABZ,PbClF,K,Mg,P,2,2,2,3.34691,35.95,1.7307,KMgP
ABZ_PbClF_K_Mg_As,ABZ,PbClF,K,Mg,As,2,2,2,3.13858,37.85,1.1752,KMgAs
ABZ_PbClF_K_Mg_Sb,ABZ,PbClF,K,Mg,Sb,2,2,2,2.86382,31,1.2947,KMgSb
ABZ_PbClF_K_Ca_N,ABZ,PbClF,K,Ca,N,2,2,2,4.04975,44.15,0.8185,KCaN
ABZ_PbClF_K_Ca_P,ABZ,PbClF,K,Ca,P,2,2,2,3.61898,31.35,1.8072,KCaP
ABZ_PbClF_K_Ca_As,ABZ,PbClF,K,Ca,As,2,2,2,3.43856,27.85,1.5121,KCaAs
ABZ_PbClF_K_Ca_Sb,ABZ,PbClF,K,Ca,Sb,2,2,2,3.20743,21.05,1.708,KCaSb
ABZ_PbClF_K_Sr_N,ABZ,PbClF,K,Sr,N,2,2,2,3.78534,35.95,0.075,KSrN
ABZ_PbClF_K_Sr_P,ABZ,PbClF,K,Sr,P,2,2,2,3.42581,26.4,1.1366,KSrP
ABZ_PbClF_K_Sr_As,ABZ,PbClF,K,Sr,As,2,2,2,3.26254,21.75,0.918,KSrAs
ABZ_PbClF_K_Sr_Sb,ABZ,PbClF,K,Sr,Sb,2,2,2,3.06141,28.3,1.2168,KSrSb
ABZ_PbClF_K_Ba_N,ABZ,PbClF,K,Ba,N,2,2,2,3.75254,30.8,0,KBaN
ABZ_PbClF_K_Ba_P,ABZ,PbClF,K,Ba,P,2,2,2,3.42645,20.45,0.7136,KBaP
ABZ_PbClF_K_Ba_As,ABZ,PbClF,K,Ba,As,2,2,2,3.2767,16.7,0.5441,KBaAs
ABZ_PbClF_K_Ba_Sb,ABZ,PbClF,K,Ba,Sb,2,2,2,3.09486,19.6,0.8453,KBaSb
ABZ_PbClF_K_Zn_N,ABZ,PbClF,K,Zn,N,2,2,2,3.40436,46.7,0,KZnN
ABZ_PbClF_K_Zn_P,ABZ,PbClF,K,Zn,P,2,2,2,2.94543,42.9,0.3326,KZnP
ABZ_PbClF_K_Zn_As,ABZ,PbClF,K,Zn,As,2,2,2,2.73453,36.2,0.0248,KZnAs
ABZ_PbClF_K_Zn_Sb,ABZ,PbClF,K,Zn,Sb,2,2,2,2.48532,33.15,0,KZnSb
ABZ_PbClF_K_Cd_N,ABZ,PbClF,K,Cd,N,2,2,2,3.00484,56.25,0,KCdN
ABZ_PbClF_K_Cd_P,ABZ,PbClF,K,Cd,P,2,2,2,2.76854,44.8,0.5793,KCdP
ABZ_PbClF_K_Cd_As,ABZ,PbClF,K,Cd,As,2,2,2,2.60633,36.5,0.181,KCdAs
ABZ_PbClF_K_Cd_Sb,ABZ,PbClF,K,Cd,Sb,2,2,2,2.40968,51.85,0,KCdSb
ABZ_PbClF_K_Hg_N,ABZ,PbClF,K,Hg,N,2,2,2,2.50418,51.15,0,KHgN
ABZ_PbClF_K_Hg_P,ABZ,PbClF,K,Hg,P,2,2,2,2.36646,39.8,0,KHgP
ABZ_PbClF_K_Hg_As,ABZ,PbClF,K,Hg,As,2,2,2,2.23424,31.65,0.2296,KHgAs
ABZ_PbClF_K_Hg_Sb,ABZ,PbClF,K,Hg,Sb,2,2,2,2.10708,32.65,0,KHgSb
ABZ_PbClF_Rb_Be_N,ABZ,PbClF,Rb,Be,N,2,2,2,4.75115,61.4,0,RbBeN
ABZ_PbClF_Rb_Be_P,ABZ,PbClF,Rb,Be,P,2,2,2,3.72693,35.75,0,RbBeP
ABZ_PbClF_Rb_Be_As,ABZ,PbClF,Rb,Be,As,2,2,2,3.44146,31.75,0,RbBeAs
ABZ_PbClF_Rb_Be_Sb,ABZ,PbClF,Rb,Be,Sb,2,2,2,3.07419,35.2,0.0901,RbBeSb
ABZ_PbClF_Rb_Mg_N,ABZ,PbClF,Rb,Mg,N,2,2,2,3.86654,35.75,0,RbMgN
ABZ_PbClF_Rb_Mg_P,ABZ,PbClF,Rb,Mg,P,2,2,2,3.27743,36.05,1.5289,RbMgP
ABZ_PbClF_Rb_Mg_As,ABZ,PbClF,Rb,Mg,As,2,2,2,3.07432,32.45,1.0405,RbMgAs
ABZ_PbClF_Rb_Mg_Sb,ABZ,PbClF,Rb,Mg,Sb,2,2,2,2.80968,31,1.1797,RbMgSb
ABZ_PbClF_Rb_Ca_N,ABZ,PbClF,Rb,Ca,N,2,2,2,3.95517,41.3,0.8721,RbCaN
ABZ_PbClF_Rb_Ca_P,ABZ,PbClF,Rb,Ca,P,2,2,2,3.57176,27.3,1.7441,RbCaP
ABZ_PbClF_Rb_Ca_As,ABZ,PbClF,Rb,Ca,As,2,2,2,3.39635,26.1,1.4653,RbCaAs
ABZ_PbClF_Rb_Ca_Sb,ABZ,PbClF,Rb,Ca,Sb,2,2,2,3.17488,24.2,1.658,RbCaSb
ABZ_PbClF_Rb_Sr_N,ABZ,PbClF,Rb,Sr,N,2,2,2,3.703,34.8,0.1285,RbSrN
ABZ_PbClF_Rb_Sr_P,ABZ,PbClF,Rb,Sr,P,2,2,2,3.38888,22.4,1.1098,RbSrP
ABZ_PbClF_Rb_Sr_As,ABZ,PbClF,Rb,Sr,As,2,2,2,3.23021,21.5,0.9103,RbSrAs
ABZ_PbClF_Rb_Sr_Sb,ABZ,PbClF,Rb,Sr,Sb,2,2,2,3.03813,17.2,1.1936,RbSrSb
ABZ_PbClF_Rb_Ba_N,ABZ,PbClF,Rb,Ba,N,2,2,2,3.6829,30.9,0,RbBaN
ABZ_PbClF_Rb_Ba_P,ABZ,PbClF,Rb,Ba,P,2,2,2,3.39836,20.7,0.745,RbBaP
ABZ_PbClF_Rb_Ba_As,ABZ,PbClF,Rb,Ba,As,2,2,2,3.25295,16.75,0.567,RbBaAs
ABZ_PbClF_Rb_Ba_Sb,ABZ,PbClF,Rb,Ba,Sb,2,2,2,3.08076,23.8,0.85,RbBaSb
ABZ_PbClF_Rb_Zn_P,ABZ,PbClF,Rb,Zn,P,2,2,2,2.86521,40.45,0.2026,RbZnP
ABZ_PbClF_Rb_Zn_As,ABZ,PbClF,Rb,Zn,As,2,2,2,2.66173,38.25,0,RbZnAs
ABZ_PbClF_Rb_Zn_Sb,ABZ,PbClF,Rb,Zn,Sb,2,2,2,2.42562,42.25,0,RbZnSb
ABZ_PbClF_Rb_Cd_N,ABZ,PbClF,Rb,Cd,N,2,2,2,2.92276,54.25,0,RbCdN
ABZ_PbClF_Rb_Cd_P,ABZ,PbClF,Rb,Cd,P,2,2,2,2.70448,40.35,0.5128,RbCdP
ABZ_PbClF_Rb_Cd_As,ABZ,PbClF,Rb,Cd,As,2,2,2,2.54679,35.9,0.1529,RbCdAs
ABZ_PbClF_Rb_Cd_Sb,ABZ,PbClF,Rb,Cd,Sb,2,2,2,2.36006,23.8,0,RbCdSb
ABZ_PbClF_Rb_Hg_N,ABZ,PbClF,Rb,Hg,N,2,2,2,2.4257,47.8,0,RbHgN
ABZ_PbClF_Rb_Hg_P,ABZ,PbClF,Rb,Hg,P,2,2,2,2.30787,37.4,0,RbHgP
ABZ_PbClF_Rb_Hg_As,ABZ,PbClF,Rb,Hg,As,2,2,2,2.18181,30.7,0.1893,RbHgAs
ABZ_PbClF_Rb_Hg_Sb,ABZ,PbClF,Rb,Hg,Sb,2,2,2,2.06257,27.65,0,RbHgSb
ABZ_PbClF_Cs_Be_N,ABZ,PbClF,Cs,Be,N,2,2,2,4.66056,65.2,0,CsBeN
ABZ_PbClF_Cs_Be_P,ABZ,PbClF,Cs,Be,P,2,2,2,3.69288,32.75,0,CsBeP
ABZ_PbClF_Cs_Be_As,ABZ,PbClF,Cs,Be,As,2,2,2,3.412,31.05,0,CsBeAs
ABZ_PbClF_Cs_Be_Sb,ABZ,PbClF,Cs,Be,Sb,2,2,2,3.04409,42.7,0,CsBeSb
ABZ_PbClF_Cs_Mg_N,ABZ,PbClF,Cs,Mg,N,2,2,2,3.86873,38.3,0,CsMgN
ABZ_PbClF_Cs_Mg_P,ABZ,PbClF,Cs,Mg,P,2,2,2,3.25535,34.35,1.4502,CsMgP
ABZ_PbClF_Cs_Mg_As,ABZ,PbClF,Cs,Mg,As,2,2,2,3.05392,30.25,1.156,CsMgAs
ABZ_PbClF_Cs_Mg_Sb,ABZ,PbClF,Cs,Mg,Sb,2,2,2,2.79489,32.9,0.894,CsMgSb
ABZ_PbClF_Cs_Ca_N,ABZ,PbClF,Cs,Ca,N,2,2,2,3.93207,27.45,0,CsCaN
ABZ_PbClF_Cs_Ca_P,ABZ,PbClF,Cs,Ca,P,2,2,2,3.55937,27.6,1.8854,CsCaP
ABZ_PbClF_Cs_Ca_As,ABZ,PbClF,Cs,Ca,As,2,2,2,3.38813,25.6,1.6521,CsCaAs
ABZ_PbClF_Cs_Ca_Sb,ABZ,PbClF,Cs,Ca,Sb,2,2,2,3.17511,27.65,1.8022,CsCaSb
ABZ_PbClF_Cs_Sr_N,ABZ,PbClF,Cs,Sr,N,2,2,2,3.66507,32.95,0.0456,CsSrN
ABZ_PbClF_Cs_Sr_P,ABZ,PbClF,Cs,Sr,P,2,2,2,3.38723,24.3,1.3065,CsSrP
ABZ_PbClF_Cs_Sr_As,ABZ,PbClF,Cs,Sr,As,2,2,2,3.23242,20.6,1.0874,CsSrAs
ABZ_PbClF_Cs_Sr_Sb,ABZ,PbClF,Cs,Sr,Sb,2,2,2,3.04831,23.1,1.3345,CsSrSb
ABZ_PbClF_Cs_Ba_N,ABZ,PbClF,Cs,Ba,N,2,2,2,3.66441,32.75,0,CsBaN
ABZ_PbClF_Cs_Ba_P,ABZ,PbClF,Cs,Ba,P,2,2,2,3.40835,19.15,0.931,CsBaP
ABZ_PbClF_Cs_Ba_As,ABZ,PbClF,Cs,Ba,As,2,2,2,3.26577,15.95,0.7642,CsBaAs
ABZ_PbClF_Cs_Ba_Sb,ABZ,PbClF,Cs,Ba,Sb,2,2,2,2.02773,10.5,0.2246,CsBaSb
ABZ_PbClF_Cs_Zn_N,ABZ,PbClF,Cs,Zn,N,2,2,2,3.31715,41.95,0,CsZnN
ABZ_PbClF_Cs_Zn_P,ABZ,PbClF,Cs,Zn,P,2,2,2,2.84254,36.6,0,CsZnP
ABZ_PbClF_Cs_Zn_As,ABZ,PbClF,Cs,Zn,As,2,2,2,2.63479,26.45,0.1249,CsZnAs
ABZ_PbClF_Cs_Zn_Sb,ABZ,PbClF,Cs,Zn,Sb,2,2,2,2.40665,15.15,0,CsZnSb
ABZ_PbClF_Cs_Cd_N,ABZ,PbClF,Cs,Cd,N,2,2,2,2.93555,37.55,0,CsCdN
ABZ_PbClF_Cs_Cd_P,ABZ,PbClF,Cs,Cd,P,2,2,2,2.68616,31.65,0.538,CsCdP
ABZ_PbClF_Cs_Cd_As,ABZ,PbClF,Cs,Cd,As,2,2,2,2.51725,28,0,CsCdAs
ABZ_PbClF_Cs_Cd_Sb,ABZ,PbClF,Cs,Cd,Sb,2,2,2,2.3508,46.85,0,CsCdSb
ABZ_PbClF_Cs_Hg_N,ABZ,PbClF,Cs,Hg,N,2,2,2,2.42551,39.8,0,CsHgN
ABZ_PbClF_Cs_Hg_P,ABZ,PbClF,Cs,Hg,P,2,2,2,2.29463,32.25,0,CsHgP
ABZ_PbClF_Cs_Hg_As,ABZ,PbClF,Cs,Hg,As,2,2,2,2.17302,31.7,0,CsHgAs
ABZ_PbClF_Cs_Hg_Sb,ABZ,PbClF,Cs,Hg,Sb,2,2,2,2.05554,21.85,0,CsHgSb