formula,Z,Period,Group,m,kai,EA,IE1,IE2,Rvdw,Rcov,MP,BP,Cp_g,Cp_mol,rho,E-fusion,E-vapor,ThermalConductivity
SrLa2S4,30.8571428571,4.14285714286,10.2857142857,70.5285714286,1.92428571429,1.32978285714,8.32695571429,18.0713742857,2.07857142857,1.42,712.841428571,1713.64142857,0.504,24.5442857143,3.25171428571,3.90285714286,139.434285714,0.0905371428571
SrLa2Se4,41.1428571429,4.71428571429,10.2857142857,97.3228571429,1.90714285714,1.29714285714,7.97974428571,16.8440142857,2.13571428571,1.5,773.178571429,1851.00714286,0.282857142857,26.066,4.88542857143,6.0,148.76,0.100657142857
SrO,23.0,3.5,9.0,51.81,2.195,0.73056075,9.65645,23.0756,2.005,1.27,552.255,870.169,0.612,28.084,2.0295,4.111,70.15545,0.1766337
SrS,27.0,4.0,9.0,59.845,1.765,1.03856,8.02743,17.18399,2.145,1.47,719.255,1183.955,0.507,24.745,2.295,4.865,73.45,0.177845
SrSc2O4,16.0,3.0,10.2857142857,34.5057142857,2.49,0.888640857143,10.4700042857,25.3020057143,1.83857142857,1.09142857143,699.412857143,1175.60028571,0.730571428571,27.906,2.04514285714,5.84114285714,108.591942857,0.0957242285714
SrSc2S4,20.5714285714,3.57142857143,10.2857142857,43.6885714286,1.99857142857,1.24064,8.60826714286,18.5687371429,1.99857142857,1.32,890.27,1534.21285714,0.610571428571,24.09,2.34857142857,6.70285714286,112.357142857,0.0971085714286
SrSc2Se4,30.8571428571,4.14285714286,10.2857142857,70.4828571429,1.98142857143,1.208,8.26105571429,17.3413771429,2.05571428571,1.4,950.607142857,1671.57857143,0.389428571429,25.6117142857,3.98228571429,8.8,121.682857143,0.107228571429
SrSc2Te4,41.1428571429,4.71428571429,10.2857142857,98.2771428571,1.72428571429,1.17988571429,7.83660428571,15.8613771429,2.14714285714,1.50857142857,1081.29857143,1844.72142857,0.321428571429,25.8214285714,4.79428571429,15.7142857143,135.574285714,0.109
SrSe,36.0,4.5,9.0,83.29,1.75,1.01,7.72362,16.11005,2.195,1.54,772.05,1304.15,0.3135,26.0765,3.7245,6.7,81.61,0.1867
SrTe,45.0,5.0,9.0,107.61,1.525,0.9854,7.352225,14.81505,2.275,1.635,886.405,1455.65,0.254,26.26,4.435,12.75,93.765,0.18825
SrY2O4,21.1428571429,3.28571428571,10.2857142857,47.0628571429,2.45,0.922640857143,10.3716642857,25.1375,1.88714285714,1.14,693.984285714,1321.02885714,0.653428571429,28.1945714286,2.47,4.52685714286,125.306228571,0.0997242285714
SrY2S4,25.7142857143,3.85714285714,10.2857142857,56.2457142857,1.95857142857,1.27464,8.50992714286,18.4042314286,2.04714285714,1.36857142857,884.841428571,1679.64142857,0.533428571429,24.3785714286,2.77342857143,5.38857142857,129.071428571,0.101108571429
SrY2Se4,36.0,4.42857142857,10.2857142857,83.04,1.94142857143,1.242,8.16271571429,17.1768714286,2.10428571429,1.44857142857,945.178571429,1817.00714286,0.312285714286,25.9002857143,4.40714285714,7.48571428571,138.397142857,0.111228571429
SrY2Te4,46.2857142857,5.0,10.2857142857,110.834285714,1.68428571429,1.21388571429,7.73826428571,15.6968714286,2.19571428571,1.55714285714,1075.87,1990.15,0.244285714286,26.11,5.21914285714,14.4,152.288571429,0.113
Y2O3,20.4,3.2,10.8,45.164,2.552,0.9994729,10.65775,25.96226,1.84,1.088,750.676,1501.3728,0.67,28.2388,2.6462,4.6932,147.36654,0.06896044
Y2S3,25.2,3.8,10.8,54.806,2.036,1.369072,8.702926,18.892328,2.008,1.328,951.076,1877.916,0.544,24.232,2.9648,5.598,151.32,0.070414
Y2Se3,36.0,4.4,10.8,82.94,2.018,1.3348,8.338354,17.6036,2.068,1.412,1014.43,2022.15,0.3118,25.8298,4.6802,7.8,161.112,0.08104
Y2Te3,46.8,5.0,10.8,112.124,1.748,1.30528,7.89268,16.0496,2.164,1.526,1151.656,2203.95,0.2404,26.05,5.5328,15.06,175.698,0.0829
YAs,36.0,4.5,9.0,81.915,1.7,0.5585,8.00295,15.4066,2.085,1.48,1442.65,2253.65,0.3135,25.585,5.0995,19.55,197.85,0.337
YBr3,36.0,4.25,13.5,82.1525,2.525,2.6005,10.414675,19.24925,1.9675,1.3175,648.25,1153.5,0.43,63.4,3.458,7.2,101.86875,0.043915
YCl3,22.5,3.5,13.5,48.815,2.675,2.7895,11.2800475,20.9162,1.8925,1.19,577.525,1083.87,0.43375,32.09425,3.5285,5.25,98.475,0.04306675
YF3,16.5,2.75,13.5,36.4775,3.29,2.626,14.621425,29.2841,1.6825,0.89,488.8975,968.3175,0.6925,30.1105,2.39,3.045,93.27735,0.04320925
YI3,49.5,5.0,13.5,117.4025,2.3,2.371075,9.39277,17.404475,2.065,1.46,738.925,1247.7,0.235,47.455,4.823,8.67,106.5,0.0463675
YN,23.0,3.5,9.0,51.46,2.13,0.1185,10.3757,20.91265,1.935,1.235,929.15,1847.7525,0.669,27.827,2.8615,5.88,183.0464,0.0861299
YP,27.0,4.0,9.0,59.94,1.705,0.52675,8.351995,15.99675,2.06,1.425,1056.225,2085.9,0.5335,25.177,3.1475,6.02,187.85,0.087175
YSb,45.0,5.0,9.0,105.355,1.635,0.6885,7.412845,14.427,2.19,1.58,1349.464,2739.15,0.2525,25.88,5.5845,15.55,215.635,0.2075
Zn3As2,31.2,4.0,13.2,69.202,1.862,0.324,9.5519594,18.214314,1.946,1.2,851.6662,1063.75,0.3644,25.09,6.5748,15.49,82.14,0.8968
Zn3N2,20.8,3.2,13.2,44.838,2.206,-0.028,11.4501594,22.619154,1.826,1.004,440.8662,739.032,0.6488,26.8836,4.7844,4.554,70.29712,0.69610392
Zn3P2,24.0,3.6,13.2,51.622,1.866,0.2986,9.8311954,18.686434,1.926,1.156,542.5262,929.55,0.5404,24.7636,5.0132,4.666,74.14,0.69694
Zn3Sb2,38.4,4.4,13.2,87.954,1.81,0.428,9.0798754,17.430634,2.03,1.28,777.1174,1452.15,0.3156,25.326,6.9628,12.29,96.368,0.7932
ZnAl2O4,12.5714285714,2.57142857143,14.5714285714,26.1928571429,2.66142857143,0.960926571429,10.8339907143,28.0151271429,1.68142857143,0.891428571429,396.723285714,1017.886,0.836285714286,27.3288571429,2.608,4.234,101.506228571,0.843009942857
ZnAl2S4,17.1428571429,3.14285714286,14.5714285714,35.3757142857,2.17,1.31292571429,8.97225357143,21.2818585714,1.84142857143,1.12,587.580428571,1376.49857143,0.716285714286,23.5128571429,2.91142857143,5.09571428571,105.271428571,0.844394285714
ZnAl2Se4,27.4285714286,3.71428571429,14.5714285714,62.17,2.15285714286,1.28028571429,8.62504214286,20.0544985714,1.89857142857,1.2,647.917571429,1513.86428571,0.495142857143,25.0345714286,4.54514285714,7.19285714286,114.597142857,0.854514285714
ZnAl2Te4,37.7142857143,4.28571428571,14.5714285714,89.9642857143,1.89571428571,1.25217142857,8.20059071429,18.5744985714,1.99,1.30857142857,778.609,1687.00714286,0.427142857143,25.2442857143,5.35714285714,14.1071428571,128.488571429,0.856285714286
ZnBr2,33.3333333333,4.0,15.3333333333,75.0633333333,2.52333333333,2.24333333333,11.0072663333,20.38213,1.90333333333,1.18,408.192333333,614.683333333,0.445333333333,58.9233333333,4.46,6.31666666667,48.25,0.38748
ZnCl2,21.3333333333,3.33333333333,15.3333333333,45.43,2.65666666667,2.41133333333,11.7764863333,21.8638633333,1.83666666667,1.06666666667,345.325666667,552.79,0.448666666667,31.096,4.52266666667,4.58333333333,45.2333333333,0.386726
ZnF2,16.0,2.66666666667,15.3333333333,34.4633333333,3.20333333333,2.266,14.7465996667,29.3019966667,1.65,0.8,266.545666667,450.076666667,0.678666666667,29.3326666667,3.51066666667,2.62333333333,40.6132,0.386852666667
ZnGa2O4,17.7142857143,2.85714285714,14.5714285714,38.4042857143,2.71857142857,0.920640857143,10.8378572857,28.4970128571,1.69,0.888571428571,216.563742857,935.028857143,0.686571428571,27.8517142857,3.52342857143,2.774,91.5805142857,0.281867085714
ZnGa2S4,22.2857142857,3.42857142857,14.5714285714,47.5871428571,2.22714285714,1.27264,8.97612014286,21.7637442857,1.85,1.11714285714,407.420885714,1293.64142857,0.566571428571,24.0357142857,3.82685714286,3.63571428571,95.3457142857,0.283251428571
ZnGa2Se4,32.5714285714,4.0,14.5714285714,74.3814285714,2.21,1.24,8.62890871429,20.5363842857,1.90714285714,1.19714285714,467.758028571,1431.00714286,0.345428571429,25.5574285714,5.46057142857,5.73285714286,104.671428571,0.293371428571
ZnGa2Te4,42.8571428571,4.57142857143,14.5714285714,102.175714286,1.95285714286,1.21188571429,8.20445728571,19.0563842857,1.99857142857,1.30571428571,598.449457143,1604.15,0.277428571429,25.7671428571,6.27257142857,12.6471428571,118.562857143,0.295142857143
ZnI2,45.3333333333,4.66666666667,15.3333333333,106.396666667,2.32333333333,2.0394,10.0989063333,18.74233,1.99,1.30666666667,488.792333333,698.416666667,0.272,44.75,5.67333333333,7.62333333333,52.3666666667,0.38966
ZnIn2O4,22.8571428571,3.14285714286,14.5714285714,51.2842857143,2.71,0.920640857143,10.777017,28.0270557143,1.70714285714,0.942857142857,252.802428571,877.314571429,0.646571428571,28.0545714286,3.92514285714,2.10828571429,83.0919428571,0.399009942857
ZnIn2S4,27.4285714286,3.71428571429,14.5714285714,60.4671428571,2.21857142857,1.27264,8.91527985714,21.2937871429,1.86714285714,1.17142857143,443.659571429,1235.92714286,0.526571428571,24.2385714286,4.22857142857,2.97,86.8571428571,0.400394285714
ZnIn2Se4,37.7142857143,4.28571428571,14.5714285714,87.2614285714,2.20142857143,1.24,8.56806842857,20.0664271429,1.92428571429,1.25142857143,503.996714286,1373.29285714,0.305428571429,25.7602857143,5.86228571429,5.06714285714,96.1828571429,0.410514285714
ZnIn2Te4,48.0,4.85714285714,14.5714285714,115.055714286,1.94428571429,1.21188571429,8.143617,18.5864271429,2.01571428571,1.36,634.688142857,1546.43571429,0.237428571429,25.97,6.67428571429,11.9814285714,110.074285714,0.412285714286
ZnLa2O4,25.1428571429,3.42857142857,11.7142857143,58.17,2.51571428571,0.977783714286,10.7171712857,25.7952557143,1.85,1.09142857143,470.916714286,1287.886,0.635714285714,28.1602857143,3.59257142857,2.94828571429,132.583371429,0.204438514286
ZnLa2S4,29.7142857143,4.0,11.7142857143,67.3528571429,2.02428571429,1.32978285714,8.85543414286,19.0619871429,2.01,1.32,661.773857143,1646.49857143,0.515714285714,24.3442857143,3.896,3.81,136.348571429,0.205822857143
ZnLa2Se4,40.0,4.57142857143,11.7142857143,94.1471428571,2.00714285714,1.29714285714,8.50822271429,17.8346271429,2.06714285714,1.4,722.111,1783.86428571,0.294571428571,25.866,5.52971428571,5.90714285714,145.674285714,0.215942857143
ZnLa2Te4,50.2857142857,5.14285714286,11.7142857143,121.941428571,1.75,1.26902857143,8.08377128571,16.3546271429,2.15857142857,1.50857142857,852.802428571,1957.00714286,0.226571428571,26.0757142857,6.34171428571,12.8214285714,159.565714286,0.217714285714
ZnO,19.0,3.0,14.0,40.695,2.545,0.73056075,11.5061245,26.542745,1.765,0.92,373.5185,635.169,0.653,27.384,4.2845,3.786,59.35545,0.5801337
ZnS,23.0,3.5,14.0,48.73,2.115,1.03856,9.8771045,20.651135,1.905,1.12,540.5185,948.955,0.548,24.045,4.55,4.54,62.65,0.581345
ZnSc2O4,14.8571428571,2.85714285714,11.7142857143,31.33,2.59,0.888640857143,10.9984827143,26.2926185714,1.77,0.991428571429,648.345285714,1108.45742857,0.742285714286,27.706,2.68942857143,5.74828571429,105.506228571,0.211009942857
ZnSc2S4,19.4285714286,3.42857142857,11.7142857143,40.5128571429,2.09857142857,1.24064,9.13674557143,19.55935,1.93,1.22,839.202428571,1467.07,0.622285714286,23.89,2.99285714286,6.61,109.271428571,0.212394285714
ZnSc2Se4,29.7142857143,4.0,11.7142857143,67.3071428571,2.08142857143,1.208,8.78953414286,18.33199,1.98714285714,1.3,899.539571429,1604.43571429,0.401142857143,25.4117142857,4.62657142857,8.70714285714,118.597142857,0.222514285714
ZnSc2Te4,40.0,4.57142857143,11.7142857143,95.1014285714,1.82428571429,1.17988571429,8.36508271429,16.85199,2.07857142857,1.40857142857,1030.231,1777.57857143,0.333142857143,25.6214285714,5.43857142857,15.6214285714,132.488571429,0.224285714286
ZnSe,32.0,4.0,14.0,72.175,2.1,1.01,9.5732945,19.577195,1.955,1.19,593.3135,1069.15,0.3545,25.3765,5.9795,6.375,70.81,0.5902
ZnTe,41.0,4.5,14.0,96.495,1.875,0.9854,9.2018995,18.282195,2.035,1.285,707.6685,1220.65,0.295,25.56,6.69,12.425,82.965,0.59175
ZnY2O4,20.0,3.14285714286,11.7142857143,43.8871428571,2.55,0.922640857143,10.9001427143,26.1281128571,1.81857142857,1.04,642.916714286,1253.886,0.665142857143,27.9945714286,3.11428571429,4.434,122.220514286,0.215009942857
ZnY2S4,24.5714285714,3.71428571429,11.7142857143,53.07,2.05857142857,1.27464,9.03840557143,19.3948442857,1.97857142857,1.26857142857,833.773857143,1612.49857143,0.545142857143,24.1785714286,3.41771428571,5.29571428571,125.985714286,0.216394285714
ZnY2Se4,34.8571428571,4.28571428571,11.7142857143,79.8642857143,2.04142857143,1.242,8.69119414286,18.1674842857,2.03571428571,1.34857142857,894.111,1749.86428571,0.324,25.7002857143,5.05142857143,7.39285714286,135.311428571,0.226514285714
ZnY2Te4,45.1428571429,4.85714285714,11.7142857143,107.658571429,1.78428571429,1.21388571429,8.26674271429,16.6874842857,2.12714285714,1.45714285714,1024.80242857,1923.00714286,0.256,25.91,5.86342857143,14.3071428571,149.202857143,0.228285714286