Compound,type,st,a1,a2,a3,n1,n2,n3,Ecoh,BM,bandgap,formula
ABZ_BaPtSb_Cs_Mg_Sb,ABZ,BaPtSb,Cs,Mg,Sb,1,1,1,1.99178,35.05,4.2884,CsMgSb
ABZ_BaPtSb_Cs_Ca_N,ABZ,BaPtSb,Cs,Ca,N,1,1,1,2.66698,24.8,0.7005,CsCaN
ABZ_BaPtSb_Cs_Ca_P,ABZ,BaPtSb,Cs,Ca,P,1,1,1,2.5125,21.3,0.9657,CsCaP
ABZ_BaPtSb_Cs_Ca_As,ABZ,BaPtSb,Cs,Ca,As,1,1,1,2.44015,18.65,1.4209,CsCaAs
ABZ_BaPtSb_Cs_Ca_Sb,ABZ,BaPtSb,Cs,Ca,Sb,1,1,1,2.35381,7.85,1.4925,CsCaSb
ABZ_BaPtSb_Cs_Sr_N,ABZ,BaPtSb,Cs,Sr,N,1,1,1,2.71042,28.9,0.9007,CsSrN
ABZ_BaPtSb_Cs_Sr_P,ABZ,BaPtSb,Cs,Sr,P,1,1,1,2.56743,18.5,0.7426,CsSrP
ABZ_BaPtSb_Cs_Sr_As,ABZ,BaPtSb,Cs,Sr,As,1,1,1,2.47026,18.4,0.9899,CsSrAs
ABZ_BaPtSb_Cs_Sr_Sb,ABZ,BaPtSb,Cs,Sr,Sb,1,1,1,2.37739,17.3,1.1987,CsSrSb
ABZ_BaPtSb_Cs_Ba_N,ABZ,BaPtSb,Cs,Ba,N,1,1,1,2.97245,29.05,0.9575,CsBaN
ABZ_BaPtSb_Cs_Ba_P,ABZ,BaPtSb,Cs,Ba,P,1,1,1,2.81837,18.25,0.5341,CsBaP
ABZ_BaPtSb_Cs_Ba_As,ABZ,BaPtSb,Cs,Ba,As,1,1,1,2.71322,17.05,0.3224,CsBaAs
ABZ_BaPtSb_Cs_Ba_Sb,ABZ,BaPtSb,Cs,Ba,Sb,1,1,1,2.61091,20.2,0.283,CsBaSb
ABZ_BaPtSb_Cs_Zn_N,ABZ,BaPtSb,Cs,Zn,N,1,1,1,1.86512,11,0.585,CsZnN
ABZ_BaPtSb_Cs_Zn_P,ABZ,BaPtSb,Cs,Zn,P,1,1,1,1.82537,19.3,4.7868,CsZnP
ABZ_BaPtSb_Cs_Zn_As,ABZ,BaPtSb,Cs,Zn,As,1,1,1,1.80681,25,4.6807,CsZnAs
ABZ_BaPtSb_Cs_Zn_Sb,ABZ,BaPtSb,Cs,Zn,Sb,1,1,1,1.79149,31.65,4.2899,CsZnSb
ABZ_BaPtSb_Cs_Cd_N,ABZ,BaPtSb,Cs,Cd,N,1,1,1,1.87166,11.35,0.5503,CsCdN
ABZ_BaPtSb_Cs_Cd_P,ABZ,BaPtSb,Cs,Cd,P,1,1,1,1.84045,19.7,4.5195,CsCdP
ABZ_BaPtSb_Cs_Cd_As,ABZ,BaPtSb,Cs,Cd,As,1,1,1,1.82517,15.65,4.5847,CsCdAs
ABZ_BaPtSb_Cs_Cd_Sb,ABZ,BaPtSb,Cs,Cd,Sb,1,1,1,1.81862,36.9,4.3058,CsCdSb
ABZ_BaPtSb_Cs_Hg_N,ABZ,BaPtSb,Cs,Hg,N,1,1,1,1.84658,11.2,0.5527,CsHgN
ABZ_BaPtSb_Cs_Hg_P,ABZ,BaPtSb,Cs,Hg,P,1,1,1,1.74404,18.9,4.1915,CsHgP
ABZ_BaPtSb_Cs_Hg_As,ABZ,BaPtSb,Cs,Hg,As,1,1,1,1.73149,22.45,4.5953,CsHgAs
ABZ_BaPtSb_Cs_Hg_Sb,ABZ,BaPtSb,Cs,Hg,Sb,1,1,1,1.72921,13.2,4.2509,CsHgSb
ABZ_CaGaN_Li_Be_N,ABZ,CaGaN,Li,Be,N,2,2,2,4.95443,108.05,0,LiBeN
ABZ_CaGaN_Li_Be_P,ABZ,CaGaN,Li,Be,P,2,2,2,3.71645,57.15,0,LiBeP
ABZ_CaGaN_Li_Be_As,ABZ,CaGaN,Li,Be,As,2,2,2,3.42851,51.85,0,LiBeAs
ABZ_CaGaN_Li_Be_Sb,ABZ,CaGaN,Li,Be,Sb,2,2,2,2.90787,55.95,0.0513,LiBeSb
ABZ_CaGaN_Li_Mg_N,ABZ,CaGaN,Li,Mg,N,2,2,2,4.28545,78.25,0,LiMgN
ABZ_CaGaN_Li_Mg_P,ABZ,CaGaN,Li,Mg,P,2,2,2,3.27303,42.3,0,LiMgP
ABZ_CaGaN_Li_Mg_As,ABZ,CaGaN,Li,Mg,As,2,2,2,3.03759,36.3,0,LiMgAs
ABZ_CaGaN_Li_Mg_Sb,ABZ,CaGaN,Li,Mg,Sb,2,2,2,2.69511,34.4,0,LiMgSb
ABZ_CaGaN_Li_Ca_N,ABZ,CaGaN,Li,Ca,N,2,2,2,4.49835,56.05,0,LiCaN
ABZ_CaGaN_Li_Ca_P,ABZ,CaGaN,Li,Ca,P,2,2,2,3.68066,36.25,0,LiCaP
ABZ_CaGaN_Li_Ca_As,ABZ,CaGaN,Li,Ca,As,2,2,2,3.55292,37,0.5111,LiCaAs
ABZ_CaGaN_Li_Ca_Sb,ABZ,CaGaN,Li,Ca,Sb,2,2,2,3.28378,27.65,0.742,LiCaSb
ABZ_CaGaN_Li_Sr_N,ABZ,CaGaN,Li,Sr,N,2,2,2,4.24583,45.1,0,LiSrN
ABZ_CaGaN_Li_Sr_P,ABZ,CaGaN,Li,Sr,P,2,2,2,3.59798,35.55,0.0811,LiSrP
ABZ_CaGaN_Li_Sr_As,ABZ,CaGaN,Li,Sr,As,2,2,2,3.41075,30.1,0,LiSrAs
ABZ_CaGaN_Li_Sr_Sb,ABZ,CaGaN,Li,Sr,Sb,2,2,2,3.16278,33.05,0.4041,LiSrSb
ABZ_CaGaN_Li_Ba_N,ABZ,CaGaN,Li,Ba,N,2,2,2,4.21177,41,0,LiBaN
ABZ_CaGaN_Li_Ba_P,ABZ,CaGaN,Li,Ba,P,2,2,2,3.63433,27.25,0,LiBaP
ABZ_CaGaN_Li_Ba_As,ABZ,CaGaN,Li,Ba,As,2,2,2,2.28593,16.4,0.0342,LiBaAs
ABZ_CaGaN_Li_Ba_Sb,ABZ,CaGaN,Li,Ba,Sb,2,2,2,3.23269,30.35,0.2334,LiBaSb
ABZ_CaGaN_Li_Zn_N,ABZ,CaGaN,Li,Zn,N,2,2,2,3.61226,102.85,0,LiZnN
ABZ_CaGaN_Li_Zn_P,ABZ,CaGaN,Li,Zn,P,2,2,2,2.81402,61.85,2.3979,LiZnP
ABZ_CaGaN_Li_Zn_As,ABZ,CaGaN,Li,Zn,As,2,2,2,2.62432,47.45,2.0119,LiZnAs
ABZ_CaGaN_Li_Zn_Sb,ABZ,CaGaN,Li,Zn,Sb,2,2,2,2.41815,38.7,1.4603,LiZnSb
ABZ_CaGaN_Li_Cd_N,ABZ,CaGaN,Li,Cd,N,2,2,2,3.28555,70.25,0,LiCdN
ABZ_CaGaN_Li_Cd_P,ABZ,CaGaN,Li,Cd,P,2,2,2,2.79205,58.55,0.1012,LiCdP
ABZ_CaGaN_Li_Cd_As,ABZ,CaGaN,Li,Cd,As,2,2,2,2.54246,38.65,2.0976,LiCdAs
ABZ_CaGaN_Li_Cd_Sb,ABZ,CaGaN,Li,Cd,Sb,2,2,2,2.38097,43.05,1.6858,LiCdSb
ABZ_CaGaN_Li_Hg_N,ABZ,CaGaN,Li,Hg,N,2,2,2,2.73931,76.9,0,LiHgN
ABZ_CaGaN_Li_Hg_P,ABZ,CaGaN,Li,Hg,P,2,2,2,2.55082,52.3,1.1984,LiHgP
ABZ_CaGaN_Li_Hg_As,ABZ,CaGaN,Li,Hg,As,2,2,2,2.43561,46.35,1.5617,LiHgAs
ABZ_CaGaN_Li_Hg_Sb,ABZ,CaGaN,Li,Hg,Sb,2,2,2,2.29338,47.65,1.5443,LiHgSb
ABZ_CaGaN_Na_Be_N,ABZ,CaGaN,Na,Be,N,2,2,2,4.49172,85.35,0,NaBeN
ABZ_CaGaN_Na_Be_P,ABZ,CaGaN,Na,Be,P,2,2,2,3.46657,50.65,0,NaBeP
ABZ_CaGaN_Na_Be_As,ABZ,CaGaN,Na,Be,As,2,2,2,3.2086,43.85,0,NaBeAs
ABZ_CaGaN_Na_Be_Sb,ABZ,CaGaN,Na,Be,Sb,2,2,2,2.85625,47.85,0,NaBeSb
ABZ_CaGaN_Na_Mg_N,ABZ,CaGaN,Na,Mg,N,2,2,2,3.92018,60.25,0,NaMgN
ABZ_CaGaN_Na_Mg_P,ABZ,CaGaN,Na,Mg,P,2,2,2,3.07095,36.9,0,NaMgP
ABZ_CaGaN_Na_Mg_As,ABZ,CaGaN,Na,Mg,As,2,2,2,2.86123,32.45,0,NaMgAs
ABZ_CaGaN_Na_Mg_Sb,ABZ,CaGaN,Na,Mg,Sb,2,2,2,2.55292,29.7,0,NaMgSb
ABZ_CaGaN_Na_Ca_N,ABZ,CaGaN,Na,Ca,N,2,2,2,4.16985,46.1,0,NaCaN
ABZ_CaGaN_Na_Ca_P,ABZ,CaGaN,Na,Ca,P,2,2,2,3.4843,33.5,0,NaCaP
ABZ_CaGaN_Na_Ca_As,ABZ,CaGaN,Na,Ca,As,2,2,2,3.28544,27.25,0,NaCaAs
ABZ_CaGaN_Na_Ca_Sb,ABZ,CaGaN,Na,Ca,Sb,2,2,2,2.99028,20.4,0,NaCaSb
ABZ_CaGaN_Na_Sr_N,ABZ,CaGaN,Na,Sr,N,2,2,2,3.92914,40.55,0,NaSrN
ABZ_CaGaN_Na_Sr_P,ABZ,CaGaN,Na,Sr,P,2,2,2,3.35468,24.6,0,NaSrP
ABZ_CaGaN_Na_Sr_As,ABZ,CaGaN,Na,Sr,As,2,2,2,3.17208,22.4,0,NaSrAs
ABZ_CaGaN_Na_Sr_Sb,ABZ,CaGaN,Na,Sr,Sb,2,2,2,2.90552,23.35,0,NaSrSb
ABZ_CaGaN_Na_Ba_N,ABZ,CaGaN,Na,Ba,N,2,2,2,3.91353,35,0,NaBaN
ABZ_CaGaN_Na_Ba_P,ABZ,CaGaN,Na,Ba,P,2,2,2,3.40092,23.85,0,NaBaP
ABZ_CaGaN_Na_Ba_As,ABZ,CaGaN,Na,Ba,As,2,2,2,3.23853,22.3,0,NaBaAs
ABZ_CaGaN_Na_Ba_Sb,ABZ,CaGaN,Na,Ba,Sb,2,2,2,3.05963,29.15,0.1081,NaBaSb
ABZ_CaGaN_Na_Zn_N,ABZ,CaGaN,Na,Zn,N,2,2,2,3.24893,70.5,0,NaZnN
ABZ_CaGaN_Na_Zn_P,ABZ,CaGaN,Na,Zn,P,2,2,2,2.61673,43.5,0,NaZnP
ABZ_CaGaN_Na_Zn_As,ABZ,CaGaN,Na,Zn,As,2,2,2,2.42233,38.25,0,NaZnAs
ABZ_CaGaN_Na_Zn_Sb,ABZ,CaGaN,Na,Zn,Sb,2,2,2,2.15794,41.1,0.8257,NaZnSb
ABZ_CaGaN_Na_Cd_N,ABZ,CaGaN,Na,Cd,N,2,2,2,2.95514,56.8,0,NaCdN
ABZ_CaGaN_Na_Cd_P,ABZ,CaGaN,Na,Cd,P,2,2,2,2.44221,33.45,0,NaCdP
ABZ_CaGaN_Na_Cd_As,ABZ,CaGaN,Na,Cd,As,2,2,2,2.33888,43.95,0.1312,NaCdAs
ABZ_CaGaN_Na_Cd_Sb,ABZ,CaGaN,Na,Cd,Sb,2,2,2,2.13119,37.6,0.9898,NaCdSb
ABZ_CaGaN_Na_Hg_N,ABZ,CaGaN,Na,Hg,N,2,2,2,2.43216,55.9,0,NaHgN
ABZ_CaGaN_Na_Hg_P,ABZ,CaGaN,Na,Hg,P,2,2,2,2.29306,33.95,2.8454,NaHgP
ABZ_CaGaN_Na_Hg_As,ABZ,CaGaN,Na,Hg,As,2,2,2,2.14766,36,0.3333,NaHgAs
ABZ_CaGaN_Na_Hg_Sb,ABZ,CaGaN,Na,Hg,Sb,2,2,2,2.04554,30.95,0.1863,NaHgSb
ABZ_CaGaN_K_Be_N,ABZ,CaGaN,K,Be,N,2,2,2,4.0993,66.75,0.389,KBeN
ABZ_CaGaN_K_Be_P,ABZ,CaGaN,K,Be,P,2,2,2,3.23785,39.65,0.8312,KBeP
ABZ_CaGaN_K_Be_As,ABZ,CaGaN,K,Be,As,2,2,2,3.01306,34.3,0.8903,KBeAs
ABZ_CaGaN_K_Be_Sb,ABZ,CaGaN,K,Be,Sb,2,2,2,2.71886,32.15,0.9277,KBeSb
ABZ_CaGaN_K_Mg_N,ABZ,CaGaN,K,Mg,N,2,2,2,3.6453,46.3,0,KMgN
ABZ_CaGaN_K_Mg_P,ABZ,CaGaN,K,Mg,P,2,2,2,2.94474,29.05,0,KMgP
ABZ_CaGaN_K_Mg_As,ABZ,CaGaN,K,Mg,As,2,2,2,2.75167,26.75,0,KMgAs
ABZ_CaGaN_K_Mg_Sb,ABZ,CaGaN,K,Mg,Sb,2,2,2,2.59448,25.45,0,KMgSb
ABZ_CaGaN_K_Ca_N,ABZ,CaGaN,K,Ca,N,2,2,2,3.97046,40,0.0407,KCaN
ABZ_CaGaN_K_Ca_P,ABZ,CaGaN,K,Ca,P,2,2,2,3.39819,23,0,KCaP
ABZ_CaGaN_K_Ca_As,ABZ,CaGaN,K,Ca,As,2,2,2,3.19173,30.5,0.1702,KCaAs
ABZ_CaGaN_K_Ca_Sb,ABZ,CaGaN,K,Ca,Sb,2,2,2,3.00327,19.35,0.3291,KCaSb
ABZ_CaGaN_K_Sr_N,ABZ,CaGaN,K,Sr,N,2,2,2,3.76051,29.8,0,KSrN
ABZ_CaGaN_K_Sr_P,ABZ,CaGaN,K,Sr,P,2,2,2,3.28061,20.85,0,KSrP
ABZ_CaGaN_K_Sr_As,ABZ,CaGaN,K,Sr,As,2,2,2,2.61552,17.95,0.8957,KSrAs
ABZ_CaGaN_K_Sr_Sb,ABZ,CaGaN,K,Sr,Sb,2,2,2,2.86815,21.8,0,KSrSb
ABZ_CaGaN_K_Ba_N,ABZ,CaGaN,K,Ba,N,2,2,2,3.7647,24.2,0,KBaN
ABZ_CaGaN_K_Ba_P,ABZ,CaGaN,K,Ba,P,2,2,2,3.26886,19.9,0,KBaP
ABZ_CaGaN_K_Ba_As,ABZ,CaGaN,K,Ba,As,2,2,2,3.15461,24.05,0.1002,KBaAs
ABZ_CaGaN_K_Ba_Sb,ABZ,CaGaN,K,Ba,Sb,2,2,2,1.73082,0.95,0.1604,KBaSb
ABZ_CaGaN_K_Zn_N,ABZ,CaGaN,K,Zn,N,2,2,2,2.97872,59,0,KZnN
ABZ_CaGaN_K_Zn_P,ABZ,CaGaN,K,Zn,P,2,2,2,2.46596,33.75,0.0415,KZnP
ABZ_CaGaN_K_Zn_As,ABZ,CaGaN,K,Zn,As,2,2,2,2.29308,32.3,0.1954,KZnAs
ABZ_CaGaN_K_Zn_Sb,ABZ,CaGaN,K,Zn,Sb,2,2,2,2.05457,23.6,1.0788,KZnSb
ABZ_CaGaN_K_Cd_N,ABZ,CaGaN,K,Cd,N,2,2,2,2.76728,54.95,0,KCdN
ABZ_CaGaN_K_Cd_P,ABZ,CaGaN,K,Cd,P,2,2,2,2.33981,29.55,0,KCdP
ABZ_CaGaN_K_Cd_As,ABZ,CaGaN,K,Cd,As,2,2,2,2.08717,27.25,0.3177,KCdAs
ABZ_CaGaN_K_Cd_Sb,ABZ,CaGaN,K,Cd,Sb,2,2,2,2.14815,49.85,0.1433,KCdSb
ABZ_CaGaN_K_Hg_N,ABZ,CaGaN,K,Hg,N,2,2,2,2.26429,43.45,0,KHgN
ABZ_CaGaN_K_Hg_P,ABZ,CaGaN,K,Hg,P,2,2,2,1.97462,27.75,0,KHgP
ABZ_CaGaN_K_Hg_As,ABZ,CaGaN,K,Hg,As,2,2,2,1.99972,25.65,1.0368,KHgAs
ABZ_CaGaN_K_Hg_Sb,ABZ,CaGaN,K,Hg,Sb,2,2,2,1.9481,34.5,1.0735,KHgSb
ABZ_CaGaN_Rb_Be_N,ABZ,CaGaN,Rb,Be,N,2,2,2,3.91236,57.55,0.2118,RbBeN
ABZ_CaGaN_Rb_Be_P,ABZ,CaGaN,Rb,Be,P,2,2,2,3.118,35.7,1.0673,RbBeP
ABZ_CaGaN_Rb_Be_As,ABZ,CaGaN,Rb,Be,As,2,2,2,2.90292,30.7,1.1582,RbBeAs
ABZ_CaGaN_Rb_Be_Sb,ABZ,CaGaN,Rb,Be,Sb,2,2,2,2.8012,37.55,0.0734,RbBeSb
ABZ_CaGaN_Rb_Mg_N,ABZ,CaGaN,Rb,Mg,N,2,2,2,3.50937,43.2,0.1616,RbMgN
ABZ_CaGaN_Rb_Mg_P,ABZ,CaGaN,Rb,Mg,P,2,2,2,2.86144,26.5,0.189,RbMgP
ABZ_CaGaN_Rb_Mg_As,ABZ,CaGaN,Rb,Mg,As,2,2,2,2.80144,28.55,0,RbMgAs
ABZ_CaGaN_Rb_Mg_Sb,ABZ,CaGaN,Rb,Mg,Sb,2,2,2,2.54796,24.8,0,RbMgSb
ABZ_CaGaN_Rb_Ca_N,ABZ,CaGaN,Rb,Ca,N,2,2,2,3.87146,29.15,0.0372,RbCaN
ABZ_CaGaN_Rb_Ca_P,ABZ,CaGaN,Rb,Ca,P,2,2,2,3.33691,20.8,0.1334,RbCaP
ABZ_CaGaN_Rb_Ca_As,ABZ,CaGaN,Rb,Ca,As,2,2,2,3.15768,19.85,0.148,RbCaAs
ABZ_CaGaN_Rb_Ca_Sb,ABZ,CaGaN,Rb,Ca,Sb,2,2,2,2.99046,22.2,0,RbCaSb
ABZ_CaGaN_Rb_Sr_N,ABZ,CaGaN,Rb,Sr,N,2,2,2,3.67795,31.2,0.0676,RbSrN
ABZ_CaGaN_Rb_Sr_P,ABZ,CaGaN,Rb,Sr,P,2,2,2,3.22773,20.35,0.0062,RbSrP
ABZ_CaGaN_Rb_Sr_As,ABZ,CaGaN,Rb,Sr,As,2,2,2,3.06235,19.25,0,RbSrAs
ABZ_CaGaN_Rb_Sr_Sb,ABZ,CaGaN,Rb,Sr,Sb,2,2,2,2.86512,22.2,0.1245,RbSrSb
ABZ_CaGaN_Rb_Ba_N,ABZ,CaGaN,Rb,Ba,N,2,2,2,3.69397,25.95,0.1246,RbBaN
ABZ_CaGaN_Rb_Ba_Sb,ABZ,CaGaN,Rb,Ba,Sb,2,2,2,2.93746,11.95,0,RbBaSb
ABZ_CaGaN_Rb_Zn_N,ABZ,CaGaN,Rb,Zn,N,2,2,2,2.85357,47.1,0,RbZnN
ABZ_CaGaN_Rb_Zn_P,ABZ,CaGaN,Rb,Zn,P,2,2,2,2.2186,24.25,2.2141,RbZnP
ABZ_CaGaN_Rb_Zn_As,ABZ,CaGaN,Rb,Zn,As,2,2,2,2.08758,22.95,1.1744,RbZnAs
ABZ_CaGaN_Rb_Zn_Sb,ABZ,CaGaN,Rb,Zn,Sb,2,2,2,2.17843,26.55,0.8804,RbZnSb
ABZ_CaGaN_Rb_Cd_N,ABZ,CaGaN,Rb,Cd,N,2,2,2,2.66407,38.05,0,RbCdN
ABZ_CaGaN_Rb_Cd_P,ABZ,CaGaN,Rb,Cd,P,2,2,2,2.26971,29.65,0,RbCdP
ABZ_CaGaN_Rb_Cd_As,ABZ,CaGaN,Rb,Cd,As,2,2,2,2.03441,20.95,2.0136,RbCdAs
ABZ_CaGaN_Rb_Cd_Sb,ABZ,CaGaN,Rb,Cd,Sb,2,2,2,1.77493,16.45,1.3945,RbCdSb
ABZ_CaGaN_Rb_Hg_N,ABZ,CaGaN,Rb,Hg,N,2,2,2,2.17817,43.1,0,RbHgN
ABZ_CaGaN_Rb_Hg_P,ABZ,CaGaN,Rb,Hg,P,2,2,2,1.91681,28,0,RbHgP
ABZ_CaGaN_Rb_Hg_As,ABZ,CaGaN,Rb,Hg,As,2,2,2,1.95366,23.35,2.4881,RbHgAs
ABZ_CaGaN_Rb_Hg_Sb,ABZ,CaGaN,Rb,Hg,Sb,2,2,2,1.66559,14.95,1.1908,RbHgSb
ABZ_CaGaN_Cs_Be_N,ABZ,CaGaN,Cs,Be,N,2,2,2,3.78852,55.55,0,CsBeN
ABZ_CaGaN_Cs_Be_P,ABZ,CaGaN,Cs,Be,P,2,2,2,2.55176,8.4,0,CsBeP
ABZ_CaGaN_Cs_Be_As,ABZ,CaGaN,Cs,Be,As,2,2,2,2.06564,20.9,0.1324,CsBeAs
ABZ_CaGaN_Cs_Be_Sb,ABZ,CaGaN,Cs,Be,Sb,2,2,2,1.90565,29.55,0.3806,CsBeSb
ABZ_CaGaN_Cs_Mg_N,ABZ,CaGaN,Cs,Mg,N,2,2,2,3.45117,37.65,0,CsMgN
ABZ_CaGaN_Cs_Mg_P,ABZ,CaGaN,Cs,Mg,P,2,2,2,2.80112,22.5,0.433,CsMgP
ABZ_CaGaN_Cs_Ca_N,ABZ,CaGaN,Cs,Ca,N,2,2,2,3.82519,33.65,0.0212,CsCaN
ABZ_CaGaN_Cs_Ca_P,ABZ,CaGaN,Cs,Ca,P,2,2,2,3.29827,21.35,0.1254,CsCaP
ABZ_CaGaN_Cs_Ca_As,ABZ,CaGaN,Cs,Ca,As,2,2,2,3.12192,19.35,0.1406,CsCaAs
ABZ_CaGaN_Cs_Ca_Sb,ABZ,CaGaN,Cs,Ca,Sb,2,2,2,2.99564,19.25,0,CsCaSb
ABZ_CaGaN_Cs_Sr_N,ABZ,CaGaN,Cs,Sr,N,2,2,2,3.64792,26.65,0.0975,CsSrN
ABZ_CaGaN_Cs_Sr_P,ABZ,CaGaN,Cs,Sr,P,2,2,2,3.20043,17.95,0.0176,CsSrP
ABZ_CaGaN_Cs_Sr_As,ABZ,CaGaN,Cs,Sr,As,2,2,2,3.03814,16.7,0.0335,CsSrAs
ABZ_CaGaN_Cs_Sr_Sb,ABZ,CaGaN,Cs,Sr,Sb,2,2,2,2.90049,13.6,0,CsSrSb
ABZ_CaGaN_Cs_Ba_As,ABZ,CaGaN,Cs,Ba,As,2,2,2,3.12178,16.35,0.1093,CsBaAs
ABZ_CaGaN_Cs_Ba_Sb,ABZ,CaGaN,Cs,Ba,Sb,2,2,2,2.98489,20.45,0,CsBaSb
ABZ_CaGaN_Cs_Zn_N,ABZ,CaGaN,Cs,Zn,N,2,2,2,2.79668,48.2,0,CsZnN
ABZ_CaGaN_Cs_Zn_P,ABZ,CaGaN,Cs,Zn,P,2,2,2,2.17573,28.8,1.5723,CsZnP
ABZ_CaGaN_Cs_Zn_As,ABZ,CaGaN,Cs,Zn,As,2,2,2,2.0572,21.95,0.8292,CsZnAs
ABZ_CaGaN_Cs_Zn_Sb,ABZ,CaGaN,Cs,Zn,Sb,2,2,2,1.48943,9.05,0.6893,CsZnSb
ABZ_CaGaN_Cs_Cd_N,ABZ,CaGaN,Cs,Cd,N,2,2,2,2.62678,42.85,0,CsCdN
ABZ_CaGaN_Cs_Cd_P,ABZ,CaGaN,Cs,Cd,P,2,2,2,2.22581,24.95,0.0341,CsCdP
ABZ_CaGaN_Cs_Cd_As,ABZ,CaGaN,Cs,Cd,As,2,2,2,2.00597,20.7,1.6596,CsCdAs
ABZ_CaGaN_Cs_Cd_Sb,ABZ,CaGaN,Cs,Cd,Sb,2,2,2,1.5336,21.6,0.1052,CsCdSb
ABZ_CaGaN_Cs_Hg_N,ABZ,CaGaN,Cs,Hg,N,2,2,2,2.14835,39.65,0,CsHgN
ABZ_CaGaN_Cs_Hg_P,ABZ,CaGaN,Cs,Hg,P,2,2,2,2.01274,24,1.6347,CsHgP
ABZ_CaGaN_Cs_Hg_As,ABZ,CaGaN,Cs,Hg,As,2,2,2,1.91805,21.6,1.702,CsHgAs
ABZ_CoYC_Li_Be_N,ABZ,CoYC,Li,Be,N,2,2,2,4.87761,124.25,1.2575,LiBeN
ABZ_CoYC_Li_Be_P,ABZ,CoYC,Li,Be,P,2,2,2,3.63609,61.7,0.6027,LiBeP
ABZ_CoYC_Li_Be_As,ABZ,CoYC,Li,Be,As,2,2,2,3.36013,54.05,0.0209,LiBeAs
ABZ_CoYC_Li_Be_Sb,ABZ,CoYC,Li,Be,Sb,2,2,2,2.99702,58.35,0,LiBeSb
ABZ_CoYC_Li_Mg_N,ABZ,CoYC,Li,Mg,N,2,2,2,4.47913,86.7,1.046,LiMgN
ABZ_CoYC_Li_Mg_P,ABZ,CoYC,Li,Mg,P,2,2,2,3.49217,42.8,0.8172,LiMgP
ABZ_CoYC_Li_Mg_As,ABZ,CoYC,Li,Mg,As,2,2,2,3.23522,39.3,0.1058,LiMgAs
ABZ_CoYC_Li_Mg_Sb,ABZ,CoYC,Li,Mg,Sb,2,2,2,2.86281,31.05,0.3233,LiMgSb
ABZ_CoYC_Li_Ca_N,ABZ,CoYC,Li,Ca,N,2,2,2,4.7568,66.2,1.5817,LiCaN
ABZ_CoYC_Li_Ca_P,ABZ,CoYC,Li,Ca,P,2,2,2,3.97426,38.05,1.9855,LiCaP
ABZ_CoYC_Li_Ca_As,ABZ,CoYC,Li,Ca,As,2,2,2,3.73979,32.6,1.5671,LiCaAs
ABZ_CoYC_Li_Ca_Sb,ABZ,CoYC,Li,Ca,Sb,2,2,2,3.39304,28.8,1.6362,LiCaSb
ABZ_CoYC_Li_Sr_N,ABZ,CoYC,Li,Sr,N,2,2,2,4.51261,56.35,0.8474,LiSrN
ABZ_CoYC_Li_Sr_P,ABZ,CoYC,Li,Sr,P,2,2,2,3.86194,33.85,1.6423,LiSrP
ABZ_CoYC_Li_Sr_As,ABZ,CoYC,Li,Sr,As,2,2,2,3.64546,30,1.3377,LiSrAs
ABZ_CoYC_Li_Sr_Sb,ABZ,CoYC,Li,Sr,Sb,2,2,2,3.33238,19.2,1.4982,LiSrSb
ABZ_CoYC_Li_Ba_N,ABZ,CoYC,Li,Ba,N,2,2,2,4.46548,44.4,0.5418,LiBaN
ABZ_CoYC_Li_Ba_P,ABZ,CoYC,Li,Ba,P,2,2,2,3.91515,28.65,1.2555,LiBaP
ABZ_CoYC_Li_Ba_As,ABZ,CoYC,Li,Ba,As,2,2,2,3.71771,27.2,1.1135,LiBaAs
ABZ_CoYC_Li_Ba_Sb,ABZ,CoYC,Li,Ba,Sb,2,2,2,3.43957,16.85,1.3874,LiBaSb
ABZ_CoYC_Li_Zn_N,ABZ,CoYC,Li,Zn,N,2,2,2,3.84666,109,0.6472,LiZnN
ABZ_CoYC_Li_Zn_P,ABZ,CoYC,Li,Zn,P,2,2,2,2.98734,52.55,1.0377,LiZnP
ABZ_CoYC_Li_Zn_As,ABZ,CoYC,Li,Zn,As,2,2,2,2.75726,41.95,1.0671,LiZnAs
ABZ_CoYC_Li_Zn_Sb,ABZ,CoYC,Li,Zn,Sb,2,2,2,2.45318,46.2,0.7763,LiZnSb
ABZ_CoYC_Li_Cd_N,ABZ,CoYC,Li,Cd,N,2,2,2,3.5962,75.25,0.2089,LiCdN
ABZ_CoYC_Li_Cd_P,ABZ,CoYC,Li,Cd,P,2,2,2,2.90931,47.8,0.7901,LiCdP
ABZ_CoYC_Li_Cd_As,ABZ,CoYC,Li,Cd,As,2,2,2,2.70147,34.3,0.8428,LiCdAs
ABZ_CoYC_Li_Cd_Sb,ABZ,CoYC,Li,Cd,Sb,2,2,2,2.41944,24.35,0.9509,LiCdSb
ABZ_CoYC_Li_Hg_N,ABZ,CoYC,Li,Hg,N,2,2,2,3.07449,66.1,0,LiHgN
ABZ_CoYC_Li_Hg_P,ABZ,CoYC,Li,Hg,P,2,2,2,2.53801,41.05,0.7165,LiHgP
ABZ_CoYC_Li_Hg_As,ABZ,CoYC,Li,Hg,As,2,2,2,2.36619,33.4,0.7742,LiHgAs
ABZ_CoYC_Li_Hg_Sb,ABZ,CoYC,Li,Hg,Sb,2,2,2,2.14737,30.7,0.9244,LiHgSb
ABZ_CoYC_Na_Be_N,ABZ,CoYC,Na,Be,N,2,2,2,3.62972,75.85,0.031,NaBeN
ABZ_CoYC_Na_Be_P,ABZ,CoYC,Na,Be,P,2,2,2,2.93404,44.25,0,NaBeP
ABZ_CoYC_Na_Be_As,ABZ,CoYC,Na,Be,As,2,2,2,2.75104,38,0,NaBeAs
ABZ_CoYC_Na_Be_Sb,ABZ,CoYC,Na,Be,Sb,2,2,2,2.48691,21.05,0,NaBeSb
ABZ_CoYC_Na_Mg_N,ABZ,CoYC,Na,Mg,N,2,2,2,3.5595,76.85,0,NaMgN
ABZ_CoYC_Na_Mg_P,ABZ,CoYC,Na,Mg,P,2,2,2,2.94261,36.75,0.2603,NaMgP
ABZ_CoYC_Na_Mg_As,ABZ,CoYC,Na,Mg,As,2,2,2,2.7492,28.5,0.3223,NaMgAs
ABZ_CoYC_Na_Mg_Sb,ABZ,CoYC,Na,Mg,Sb,2,2,2,2.47708,31.7,0.438,NaMgSb
ABZ_CoYC_Na_Ca_N,ABZ,CoYC,Na,Ca,N,2,2,2,4.05335,49.65,0.2158,NaCaN
ABZ_CoYC_Na_Ca_P,ABZ,CoYC,Na,Ca,P,2,2,2,3.51754,34.1,1.1829,NaCaP
ABZ_CoYC_Na_Ca_As,ABZ,CoYC,Na,Ca,As,2,2,2,3.3244,29.85,0.828,NaCaAs
ABZ_CoYC_Na_Ca_Sb,ABZ,CoYC,Na,Ca,Sb,2,2,2,3.05174,25.35,0.8372,NaCaSb
ABZ_CoYC_Na_Sr_N,ABZ,CoYC,Na,Sr,N,2,2,2,3.92062,47,0,NaSrN
ABZ_CoYC_Na_Sr_P,ABZ,CoYC,Na,Sr,P,2,2,2,3.45839,28.55,1.0368,NaSrP
ABZ_CoYC_Na_Sr_As,ABZ,CoYC,Na,Sr,As,2,2,2,3.27606,25.75,0.7995,NaSrAs
ABZ_CoYC_Na_Sr_Sb,ABZ,CoYC,Na,Sr,Sb,2,2,2,3.0233,14.75,0.9567,NaSrSb
ABZ_CoYC_Na_Ba_N,ABZ,CoYC,Na,Ba,N,2,2,2,3.97139,38.8,0,NaBaN
ABZ_CoYC_Na_Ba_P,ABZ,CoYC,Na,Ba,P,2,2,2,3.56288,26.6,0.8477,NaBaP
ABZ_CoYC_Na_Ba_As,ABZ,CoYC,Na,Ba,As,2,2,2,3.39257,22.55,0.7127,NaBaAs
ABZ_CoYC_Na_Ba_Sb,ABZ,CoYC,Na,Ba,Sb,2,2,2,3.16108,19.65,1.0548,NaBaSb
ABZ_CoYC_Na_Zn_N,ABZ,CoYC,Na,Zn,N,2,2,2,3.00433,69.25,0.0219,NaZnN
ABZ_CoYC_Na_Zn_P,ABZ,CoYC,Na,Zn,P,2,2,2,2.4484,36,0.3859,NaZnP
ABZ_CoYC_Na_Zn_As,ABZ,CoYC,Na,Zn,As,2,2,2,2.28627,31.5,0.4468,NaZnAs
ABZ_CoYC_Na_Zn_Sb,ABZ,CoYC,Na,Zn,Sb,2,2,2,2.05871,15.8,0.4532,NaZnSb
ABZ_CoYC_Na_Cd_N,ABZ,CoYC,Na,Cd,N,2,2,2,2.93184,59.85,0.0544,NaCdN
ABZ_CoYC_Na_Cd_P,ABZ,CoYC,Na,Cd,P,2,2,2,2.45676,40.5,0.3725,NaCdP
ABZ_CoYC_Na_Cd_As,ABZ,CoYC,Na,Cd,As,2,2,2,2.30317,30.8,0.4189,NaCdAs
ABZ_CoYC_Na_Cd_Sb,ABZ,CoYC,Na,Cd,Sb,2,2,2,2.08779,31.8,0.5092,NaCdSb
ABZ_CoYC_Na_Hg_N,ABZ,CoYC,Na,Hg,N,2,2,2,2.51722,52.4,0.1626,NaHgN
ABZ_CoYC_Na_Hg_P,ABZ,CoYC,Na,Hg,P,2,2,2,2.12676,30.25,0.4353,NaHgP
ABZ_CoYC_Na_Hg_As,ABZ,CoYC,Na,Hg,As,2,2,2,1.99956,28.35,0.4651,NaHgAs
ABZ_CoYC_Na_Hg_Sb,ABZ,CoYC,Na,Hg,Sb,2,2,2,1.82554,42.55,0.5357,NaHgSb
ABZ_CoYC_K_Be_N,ABZ,CoYC,K,Be,N,2,2,2,2.85942,42,0.6582,KBeN
ABZ_CoYC_K_Be_P,ABZ,CoYC,K,Be,P,2,2,2,2.40063,29.1,0.5604,KBeP
ABZ_CoYC_K_Be_As,ABZ,CoYC,K,Be,As,2,2,2,2.26784,24.65,0.399,KBeAs
ABZ_CoYC_K_Be_Sb,ABZ,CoYC,K,Be,Sb,2,2,2,2.06205,26.45,0.105,KBeSb
ABZ_CoYC_K_Mg_N,ABZ,CoYC,K,Mg,N,2,2,2,2.89849,38.9,0,KMgN
ABZ_CoYC_K_Mg_P,ABZ,CoYC,K,Mg,P,2,2,2,2.48731,21.65,0,KMgP
ABZ_CoYC_K_Mg_As,ABZ,CoYC,K,Mg,As,2,2,2,2.34908,22.3,0,KMgAs
ABZ_CoYC_K_Mg_Sb,ABZ,CoYC,K,Mg,Sb,2,2,2,2.14875,25.85,0,KMgSb
ABZ_CoYC_K_Ca_N,ABZ,CoYC,K,Ca,N,2,2,2,3.42339,35.1,0,KCaN
ABZ_CoYC_K_Ca_P,ABZ,CoYC,K,Ca,P,2,2,2,3.08659,25.3,0,KCaP
ABZ_CoYC_K_Ca_As,ABZ,CoYC,K,Ca,As,2,2,2,2.93384,19,0,KCaAs
ABZ_CoYC_K_Ca_Sb,ABZ,CoYC,K,Ca,Sb,2,2,2,2.73693,23.75,0,KCaSb
ABZ_CoYC_K_Sr_N,ABZ,CoYC,K,Sr,N,2,2,2,3.38211,30.9,0,KSrN
ABZ_CoYC_K_Sr_P,ABZ,CoYC,K,Sr,P,2,2,2,3.08764,21.95,0,KSrP
ABZ_CoYC_K_Sr_As,ABZ,CoYC,K,Sr,As,2,2,2,2.94024,19.85,0,KSrAs
ABZ_CoYC_K_Sr_Sb,ABZ,CoYC,K,Sr,Sb,2,2,2,2.7535,22.55,0,KSrSb
ABZ_CoYC_K_Ba_N,ABZ,CoYC,K,Ba,N,2,2,2,3.52636,31.8,0,KBaN
ABZ_CoYC_K_Ba_P,ABZ,CoYC,K,Ba,P,2,2,2,3.2601,21,0.0898,KBaP
ABZ_CoYC_K_Ba_As,ABZ,CoYC,K,Ba,As,2,2,2,3.11808,18.8,0,KBaAs
ABZ_CoYC_K_Ba_Sb,ABZ,CoYC,K,Ba,Sb,2,2,2,2.94142,23.85,0.2353,KBaSb
ABZ_CoYC_K_Zn_N,ABZ,CoYC,K,Zn,N,2,2,2,2.45852,33.75,0,KZnN
ABZ_CoYC_K_Zn_P,ABZ,CoYC,K,Zn,P,2,2,2,2.03468,24.15,0,KZnP
ABZ_CoYC_K_Zn_As,ABZ,CoYC,K,Zn,As,2,2,2,1.91256,16.15,0,KZnAs
ABZ_CoYC_K_Zn_Sb,ABZ,CoYC,K,Zn,Sb,2,2,2,1.72862,19.85,0,KZnSb
ABZ_CoYC_K_Cd_N,ABZ,CoYC,K,Cd,N,2,2,2,2.48801,38.05,0,KCdN
ABZ_CoYC_K_Cd_P,ABZ,CoYC,K,Cd,P,2,2,2,2.10848,25.1,0,KCdP
ABZ_CoYC_K_Cd_As,ABZ,CoYC,K,Cd,As,2,2,2,1.99033,21.3,0,KCdAs
ABZ_CoYC_K_Cd_Sb,ABZ,CoYC,K,Cd,Sb,2,2,2,1.81423,33.25,0,KCdSb
ABZ_CoYC_K_Hg_N,ABZ,CoYC,K,Hg,N,2,2,2,2.17899,33.2,0,KHgN
ABZ_CoYC_K_Hg_P,ABZ,CoYC,K,Hg,P,2,2,2,1.82702,22.75,0,KHgP
ABZ_CoYC_K_Hg_As,ABZ,CoYC,K,Hg,As,2,2,2,1.72451,15.65,0,KHgAs
ABZ_CoYC_K_Hg_Sb,ABZ,CoYC,K,Hg,Sb,2,2,2,1.57331,6.95,0.0455,KHgSb
ABZ_CoYC_Rb_Be_N,ABZ,CoYC,Rb,Be,N,2,2,2,2.59165,39.5,0.9788,RbBeN
ABZ_CoYC_Rb_Be_P,ABZ,CoYC,Rb,Be,P,2,2,2,2.17412,24,0.7952,RbBeP
ABZ_CoYC_Rb_Be_As,ABZ,CoYC,Rb,Be,As,2,2,2,2.05786,22.5,0.7239,RbBeAs
ABZ_CoYC_Rb_Be_Sb,ABZ,CoYC,Rb,Be,Sb,2,2,2,1.86749,15.25,0.5532,RbBeSb
ABZ_CoYC_Rb_Mg_N,ABZ,CoYC,Rb,Mg,N,2,2,2,2.67232,31.55,0.3147,RbMgN
ABZ_CoYC_Rb_Mg_P,ABZ,CoYC,Rb,Mg,P,2,2,2,2.30356,21.6,0.0585,RbMgP
ABZ_CoYC_Rb_Mg_As,ABZ,CoYC,Rb,Mg,As,2,2,2,2.18243,18.45,0.0126,RbMgAs
ABZ_CoYC_Rb_Mg_Sb,ABZ,CoYC,Rb,Mg,Sb,2,2,2,2.00162,18.55,0,RbMgSb
ABZ_CoYC_Rb_Ca_N,ABZ,CoYC,Rb,Ca,N,2,2,2,3.17443,29.5,0.2272,RbCaN
ABZ_CoYC_Rb_Ca_P,ABZ,CoYC,Rb,Ca,P,2,2,2,2.86999,20.7,0,RbCaP
ABZ_CoYC_Rb_Ca_As,ABZ,CoYC,Rb,Ca,As,2,2,2,2.73557,19.7,0,RbCaAs
ABZ_CoYC_Rb_Ca_Sb,ABZ,CoYC,Rb,Ca,Sb,2,2,2,2.56218,20.25,0,RbCaSb
ABZ_CoYC_Rb_Sr_N,ABZ,CoYC,Rb,Sr,N,2,2,2,3.15405,21.4,0.1446,RbSrN
ABZ_CoYC_Rb_Sr_P,ABZ,CoYC,Rb,Sr,P,2,2,2,2.88954,20.4,0,RbSrP
ABZ_CoYC_Rb_Sr_As,ABZ,CoYC,Rb,Sr,As,2,2,2,2.75778,18.7,0,RbSrAs
ABZ_CoYC_Rb_Sr_Sb,ABZ,CoYC,Rb,Sr,Sb,2,2,2,2.5927,22.6,0,RbSrSb
ABZ_CoYC_Rb_Ba_N,ABZ,CoYC,Rb,Ba,N,2,2,2,3.3176,21.5,0.0148,RbBaN
ABZ_CoYC_Rb_Ba_P,ABZ,CoYC,Rb,Ba,P,2,2,2,3.08561,18.8,0,RbBaP
ABZ_CoYC_Rb_Ba_As,ABZ,CoYC,Rb,Ba,As,2,2,2,2.95579,16.4,0,RbBaAs
ABZ_CoYC_Rb_Ba_Sb,ABZ,CoYC,Rb,Ba,Sb,2,2,2,2.79873,19,0,RbBaSb
ABZ_CoYC_Rb_Zn_N,ABZ,CoYC,Rb,Zn,N,2,2,2,2.25834,32.15,0.0594,RbZnN
ABZ_CoYC_Rb_Zn_P,ABZ,CoYC,Rb,Zn,P,2,2,2,1.85935,17.4,0,RbZnP
ABZ_CoYC_Rb_Zn_As,ABZ,CoYC,Rb,Zn,As,2,2,2,1.75111,18.95,0,RbZnAs
ABZ_CoYC_Rb_Zn_Sb,ABZ,CoYC,Rb,Zn,Sb,2,2,2,1.58264,7.5,0,RbZnSb
ABZ_CoYC_Rb_Cd_N,ABZ,CoYC,Rb,Cd,N,2,2,2,2.31842,27.55,0,RbCdN
ABZ_CoYC_Rb_Cd_P,ABZ,CoYC,Rb,Cd,P,2,2,2,1.95379,22.1,0,RbCdP